   8   8   1   0
  0.1623370E+02  0.4199705E-09  0.5560890E-09  0.5560890E-09  0.1000000E-15
  1.000000000000000E-004
  CAR 
 DFT routine                             
     11.05405767    -36.40391897  301      6.27214265      1.00000000
    -36.404  0.0000E+00  0.0000E+00
    -36.246  0.0000E+00  0.0000E+00
    -36.088  0.0000E+00  0.0000E+00
    -35.929  0.0000E+00  0.0000E+00
    -35.771  0.0000E+00  0.0000E+00
    -35.613  0.0000E+00  0.0000E+00
    -35.455  0.0000E+00  0.0000E+00
    -35.297  0.0000E+00  0.0000E+00
    -35.138  0.0000E+00  0.0000E+00
    -34.980  0.0000E+00  0.0000E+00
    -34.822  0.0000E+00  0.0000E+00
    -34.664  0.0000E+00  0.0000E+00
    -34.506  0.0000E+00  0.0000E+00
    -34.347  0.0000E+00  0.0000E+00
    -34.189  0.8429E+01  0.1333E+01
    -34.031  0.0000E+00  0.1333E+01
    -33.873  0.0000E+00  0.1333E+01
    -33.715  0.0000E+00  0.1333E+01
    -33.556  0.0000E+00  0.1333E+01
    -33.398  0.0000E+00  0.1333E+01
    -33.240  0.0000E+00  0.1333E+01
    -33.082  0.0000E+00  0.1333E+01
    -32.924  0.0000E+00  0.1333E+01
    -32.765  0.0000E+00  0.1333E+01
    -32.607  0.0000E+00  0.1333E+01
    -32.449  0.0000E+00  0.1333E+01
    -32.291  0.0000E+00  0.1333E+01
    -32.133  0.0000E+00  0.1333E+01
    -31.975  0.0000E+00  0.1333E+01
    -31.816  0.0000E+00  0.1333E+01
    -31.658  0.0000E+00  0.1333E+01
    -31.500  0.0000E+00  0.1333E+01
    -31.342  0.0000E+00  0.1333E+01
    -31.184  0.0000E+00  0.1333E+01
    -31.025  0.0000E+00  0.1333E+01
    -30.867  0.0000E+00  0.1333E+01
    -30.709  0.0000E+00  0.1333E+01
    -30.551  0.0000E+00  0.1333E+01
    -30.393  0.0000E+00  0.1333E+01
    -30.234  0.0000E+00  0.1333E+01
    -30.076  0.0000E+00  0.1333E+01
    -29.918  0.0000E+00  0.1333E+01
    -29.760  0.0000E+00  0.1333E+01
    -29.602  0.0000E+00  0.1333E+01
    -29.443  0.0000E+00  0.1333E+01
    -29.285  0.0000E+00  0.1333E+01
    -29.127  0.0000E+00  0.1333E+01
    -28.969  0.0000E+00  0.1333E+01
    -28.811  0.0000E+00  0.1333E+01
    -28.652  0.0000E+00  0.1333E+01
    -28.494  0.0000E+00  0.1333E+01
    -28.336  0.0000E+00  0.1333E+01
    -28.178  0.0000E+00  0.1333E+01
    -28.020  0.0000E+00  0.1333E+01
    -27.861  0.0000E+00  0.1333E+01
    -27.703  0.0000E+00  0.1333E+01
    -27.545  0.0000E+00  0.1333E+01
    -27.387  0.0000E+00  0.1333E+01
    -27.229  0.0000E+00  0.1333E+01
    -27.071  0.0000E+00  0.1333E+01
    -26.912  0.0000E+00  0.1333E+01
    -26.754  0.0000E+00  0.1333E+01
    -26.596  0.0000E+00  0.1333E+01
    -26.438  0.0000E+00  0.1333E+01
    -26.280  0.0000E+00  0.1333E+01
    -26.121  0.0000E+00  0.1333E+01
    -25.963  0.0000E+00  0.1333E+01
    -25.805  0.0000E+00  0.1333E+01
    -25.647  0.0000E+00  0.1333E+01
    -25.489  0.0000E+00  0.1333E+01
    -25.330  0.0000E+00  0.1333E+01
    -25.172  0.0000E+00  0.1333E+01
    -25.014  0.0000E+00  0.1333E+01
    -24.856  0.0000E+00  0.1333E+01
    -24.698  0.0000E+00  0.1333E+01
    -24.539  0.0000E+00  0.1333E+01
    -24.381  0.0000E+00  0.1333E+01
    -24.223  0.0000E+00  0.1333E+01
    -24.065  0.0000E+00  0.1333E+01
    -23.907  0.0000E+00  0.1333E+01
    -23.748  0.0000E+00  0.1333E+01
    -23.590  0.0000E+00  0.1333E+01
    -23.432  0.0000E+00  0.1333E+01
    -23.274  0.0000E+00  0.1333E+01
    -23.116  0.0000E+00  0.1333E+01
    -22.957  0.0000E+00  0.1333E+01
    -22.799  0.0000E+00  0.1333E+01
    -22.641  0.0000E+00  0.1333E+01
    -22.483  0.0000E+00  0.1333E+01
    -22.325  0.0000E+00  0.1333E+01
    -22.167  0.0000E+00  0.1333E+01
    -22.008  0.0000E+00  0.1333E+01
    -21.850  0.0000E+00  0.1333E+01
    -21.692  0.0000E+00  0.1333E+01
    -21.534  0.0000E+00  0.1333E+01
    -21.376  0.0000E+00  0.1333E+01
    -21.217  0.0000E+00  0.1333E+01
    -21.059  0.0000E+00  0.1333E+01
    -20.901  0.0000E+00  0.1333E+01
    -20.743  0.0000E+00  0.1333E+01
    -20.585  0.0000E+00  0.1333E+01
    -20.426  0.0000E+00  0.1333E+01
    -20.268  0.0000E+00  0.1333E+01
    -20.110  0.0000E+00  0.1333E+01
    -19.952  0.0000E+00  0.1333E+01
    -19.794  0.0000E+00  0.1333E+01
    -19.635  0.0000E+00  0.1333E+01
    -19.477  0.0000E+00  0.1333E+01
    -19.319  0.0000E+00  0.1333E+01
    -19.161  0.0000E+00  0.1333E+01
    -19.003  0.0000E+00  0.1333E+01
    -18.844  0.0000E+00  0.1333E+01
    -18.686  0.0000E+00  0.1333E+01
    -18.528  0.0000E+00  0.1333E+01
    -18.370  0.0000E+00  0.1333E+01
    -18.212  0.0000E+00  0.1333E+01
    -18.054  0.0000E+00  0.1333E+01
    -17.895  0.0000E+00  0.1333E+01
    -17.737  0.0000E+00  0.1333E+01
    -17.579  0.0000E+00  0.1333E+01
    -17.421  0.0000E+00  0.1333E+01
    -17.263  0.0000E+00  0.1333E+01
    -17.104  0.0000E+00  0.1333E+01
    -16.946  0.0000E+00  0.1333E+01
    -16.788  0.0000E+00  0.1333E+01
    -16.630  0.0000E+00  0.1333E+01
    -16.472  0.0000E+00  0.1333E+01
    -16.313  0.0000E+00  0.1333E+01
    -16.155  0.0000E+00  0.1333E+01
    -15.997  0.0000E+00  0.1333E+01
    -15.839  0.0000E+00  0.1333E+01
    -15.681  0.0000E+00  0.1333E+01
    -15.522  0.7130E-07  0.1333E+01
    -15.364  0.8265E+01  0.2991E+01
    -15.206  0.1252E+01  0.5333E+01
    -15.048  0.0000E+00  0.5333E+01
    -14.890  0.0000E+00  0.5333E+01
    -14.731  0.0000E+00  0.5333E+01
    -14.573  0.0000E+00  0.5333E+01
    -14.415  0.0000E+00  0.5333E+01
    -14.257  0.0000E+00  0.5333E+01
    -14.099  0.0000E+00  0.5333E+01
    -13.940  0.0000E+00  0.5333E+01
    -13.782  0.0000E+00  0.5333E+01
    -13.624  0.0000E+00  0.5333E+01
    -13.466  0.0000E+00  0.5333E+01
    -13.308  0.0000E+00  0.5333E+01
    -13.150  0.0000E+00  0.5333E+01
    -12.991  0.0000E+00  0.5333E+01
    -12.833  0.0000E+00  0.5333E+01
    -12.675  0.0000E+00  0.5333E+01
    -12.517  0.0000E+00  0.5333E+01
    -12.359  0.0000E+00  0.5333E+01
    -12.200  0.0000E+00  0.5333E+01
    -12.042  0.0000E+00  0.5333E+01
    -11.884  0.0000E+00  0.5333E+01
    -11.726  0.0000E+00  0.5333E+01
    -11.568  0.0000E+00  0.5333E+01
    -11.409  0.0000E+00  0.5333E+01
    -11.251  0.0000E+00  0.5333E+01
    -11.093  0.0000E+00  0.5333E+01
    -10.935  0.0000E+00  0.5333E+01
    -10.777  0.0000E+00  0.5333E+01
    -10.618  0.0000E+00  0.5333E+01
    -10.460  0.0000E+00  0.5333E+01
    -10.302  0.0000E+00  0.5333E+01
    -10.144  0.0000E+00  0.5333E+01
     -9.986  0.0000E+00  0.5333E+01
     -9.827  0.0000E+00  0.5333E+01
     -9.669  0.0000E+00  0.5333E+01
     -9.511  0.0000E+00  0.5333E+01
     -9.353  0.0000E+00  0.5333E+01
     -9.195  0.0000E+00  0.5333E+01
     -9.036  0.0000E+00  0.5333E+01
     -8.878  0.0000E+00  0.5333E+01
     -8.720  0.0000E+00  0.5333E+01
     -8.562  0.0000E+00  0.5333E+01
     -8.404  0.0000E+00  0.5333E+01
     -8.246  0.0000E+00  0.5333E+01
     -8.087  0.0000E+00  0.5333E+01
     -7.929  0.0000E+00  0.5333E+01
     -7.771  0.0000E+00  0.5333E+01
     -7.613  0.1640E-01  0.5340E+01
     -7.455  0.2618E+00  0.5401E+01
     -7.296  0.2887E+00  0.5489E+01
     -7.138  0.9652E+00  0.5711E+01
     -6.980  0.8375E+00  0.5965E+01
     -6.822  0.0000E+00  0.6000E+01
     -6.664  0.0000E+00  0.6000E+01
     -6.505  0.0000E+00  0.6000E+01
     -6.347  0.0000E+00  0.6000E+01
     -6.189  0.0000E+00  0.6000E+01
     -6.031  0.0000E+00  0.6000E+01
     -5.873  0.0000E+00  0.6000E+01
     -5.714  0.0000E+00  0.6000E+01
     -5.556  0.0000E+00  0.6000E+01
     -5.398  0.1912E+00  0.6045E+01
     -5.240  0.3925E+00  0.6138E+01
     -5.082  0.6212E+00  0.6266E+01
     -4.923  0.3853E+00  0.6411E+01
     -4.765  0.7756E+00  0.6565E+01
     -4.607  0.3932E+00  0.6794E+01
     -4.449  0.5936E+00  0.7008E+01
     -4.291  0.4920E+00  0.7228E+01
     -4.132  0.0000E+00  0.7333E+01
     -3.974  0.0000E+00  0.7333E+01
     -3.816  0.0000E+00  0.7333E+01
     -3.658  0.0000E+00  0.7333E+01
     -3.500  0.8087E-07  0.7333E+01
     -3.342  0.1927E+00  0.7379E+01
     -3.183  0.1927E+00  0.7410E+01
     -3.025  0.0000E+00  0.7440E+01
     -2.867  0.0000E+00  0.7440E+01
     -2.709  0.3799E+00  0.7500E+01
     -2.551  0.3828E+00  0.7592E+01
     -2.392  0.3853E+00  0.7653E+01
     -2.234  0.1920E+00  0.7699E+01
     -2.076  0.4532E+00  0.7771E+01
     -1.918  0.4008E+00  0.7873E+01
     -1.760  0.1927E+00  0.7924E+01
     -1.601  0.3472E+00  0.7994E+01
     -1.443  0.4590E-01  0.8057E+01
     -1.285  0.2408E+00  0.8095E+01
     -1.127  0.8116E-01  0.8123E+01
     -0.969  0.1926E+00  0.8225E+01
     -0.810  0.3702E+00  0.8314E+01
     -0.652  0.1927E+00  0.8347E+01
     -0.494  0.1328E+01  0.8557E+01
     -0.336  0.9520E-01  0.8579E+01
     -0.178  0.1933E-06  0.8610E+01
     -0.019  0.4809E+00  0.8731E+01
      0.139  0.1781E-01  0.8818E+01
      0.297  0.1405E+00  0.8906E+01
      0.455  0.1928E+00  0.8998E+01
      0.613  0.5780E+00  0.9181E+01
      0.771  0.5729E+00  0.9363E+01
      0.930  0.2518E+00  0.9434E+01
      1.088  0.2797E-01  0.9498E+01
      1.246  0.0000E+00  0.9619E+01
      1.404  0.2338E-02  0.9619E+01
      1.562  0.1557E+01  0.1009E+02
      1.721  0.5829E+00  0.1041E+02
      1.879  0.7706E+00  0.1061E+02
      2.037  0.8668E+00  0.1089E+02
      2.195  0.1060E+01  0.1106E+02
      2.353  0.8514E+00  0.1144E+02
      2.512  0.1942E+00  0.1155E+02
      2.670  0.2186E+01  0.1204E+02
      2.828  0.4557E+00  0.1221E+02
      2.986  0.3852E+00  0.1243E+02
      3.144  0.5295E+00  0.1266E+02
      3.303  0.9352E+00  0.1295E+02
      3.461  0.7698E+00  0.1321E+02
      3.619  0.7081E+00  0.1345E+02
      3.777  0.1988E+00  0.1357E+02
      3.935  0.5553E+00  0.1371E+02
      4.094  0.4659E+00  0.1403E+02
      4.252  0.7732E+00  0.1437E+02
      4.410  0.1927E+00  0.1446E+02
      4.568  0.1927E+00  0.1458E+02
      4.726  0.9529E+00  0.1476E+02
      4.885  0.6751E+00  0.1502E+02
      5.043  0.5145E+00  0.1517E+02
      5.201  0.6502E+00  0.1544E+02
      5.359  0.7564E+00  0.1571E+02
      5.517  0.1157E+01  0.1598E+02
      5.675  0.2750E+00  0.1620E+02
      5.834  0.1254E+01  0.1643E+02
      5.992  0.8475E+00  0.1661E+02
      6.150  0.8111E+00  0.1690E+02
      6.308  0.1234E+01  0.1712E+02
      6.466  0.1060E+01  0.1740E+02
      6.625  0.7420E+00  0.1778E+02
      6.783  0.3854E+00  0.1797E+02
      6.941  0.5817E+00  0.1813E+02
      7.099  0.1525E+01  0.1840E+02
      7.257  0.1054E+01  0.1866E+02
      7.416  0.1088E+01  0.1887E+02
      7.574  0.9422E+00  0.1917E+02
      7.732  0.5778E+00  0.1937E+02
      7.890  0.6757E+00  0.1950E+02
      8.048  0.1082E+01  0.1971E+02
      8.207  0.3366E+00  0.1986E+02
      8.365  0.1206E+00  0.1988E+02
      8.523  0.3931E-05  0.1992E+02
      8.681  0.0000E+00  0.1993E+02
      8.839  0.6148E-01  0.1994E+02
      8.998  0.0000E+00  0.2000E+02
      9.156  0.0000E+00  0.2000E+02
      9.314  0.0000E+00  0.2000E+02
      9.472  0.0000E+00  0.2000E+02
      9.630  0.0000E+00  0.2000E+02
      9.789  0.0000E+00  0.2000E+02
      9.947  0.0000E+00  0.2000E+02
     10.105  0.0000E+00  0.2000E+02
     10.263  0.0000E+00  0.2000E+02
     10.421  0.0000E+00  0.2000E+02
     10.579  0.0000E+00  0.2000E+02
     10.738  0.0000E+00  0.2000E+02
     10.896  0.0000E+00  0.2000E+02
     11.054  0.0000E+00  0.2000E+02
     11.05405767    -36.40391897  301      6.27214265      1.00000000
    -36.404  0.0000E+00  0.0000E+00  0.0000E+00
    -36.246  0.0000E+00  0.0000E+00  0.0000E+00
    -36.088  0.0000E+00  0.0000E+00  0.0000E+00
    -35.929  0.0000E+00  0.0000E+00  0.0000E+00
    -35.771  0.0000E+00  0.0000E+00  0.0000E+00
    -35.613  0.0000E+00  0.0000E+00  0.0000E+00
    -35.455  0.0000E+00  0.0000E+00  0.0000E+00
    -35.297  0.0000E+00  0.0000E+00  0.0000E+00
    -35.138  0.0000E+00  0.0000E+00  0.0000E+00
    -34.980  0.0000E+00  0.0000E+00  0.0000E+00
    -34.822  0.0000E+00  0.0000E+00  0.0000E+00
    -34.664  0.0000E+00  0.0000E+00  0.0000E+00
    -34.506  0.0000E+00  0.0000E+00  0.0000E+00
    -34.347  0.0000E+00  0.0000E+00  0.0000E+00
    -34.189  0.6626E-04  0.9119E-04  0.0000E+00
    -34.031  0.0000E+00  0.0000E+00  0.0000E+00
    -33.873  0.0000E+00  0.0000E+00  0.0000E+00
    -33.715  0.0000E+00  0.0000E+00  0.0000E+00
    -33.556  0.0000E+00  0.0000E+00  0.0000E+00
    -33.398  0.0000E+00  0.0000E+00  0.0000E+00
    -33.240  0.0000E+00  0.0000E+00  0.0000E+00
    -33.082  0.0000E+00  0.0000E+00  0.0000E+00
    -32.924  0.0000E+00  0.0000E+00  0.0000E+00
    -32.765  0.0000E+00  0.0000E+00  0.0000E+00
    -32.607  0.0000E+00  0.0000E+00  0.0000E+00
    -32.449  0.0000E+00  0.0000E+00  0.0000E+00
    -32.291  0.0000E+00  0.0000E+00  0.0000E+00
    -32.133  0.0000E+00  0.0000E+00  0.0000E+00
    -31.975  0.0000E+00  0.0000E+00  0.0000E+00
    -31.816  0.0000E+00  0.0000E+00  0.0000E+00
    -31.658  0.0000E+00  0.0000E+00  0.0000E+00
    -31.500  0.0000E+00  0.0000E+00  0.0000E+00
    -31.342  0.0000E+00  0.0000E+00  0.0000E+00
    -31.184  0.0000E+00  0.0000E+00  0.0000E+00
    -31.025  0.0000E+00  0.0000E+00  0.0000E+00
    -30.867  0.0000E+00  0.0000E+00  0.0000E+00
    -30.709  0.0000E+00  0.0000E+00  0.0000E+00
    -30.551  0.0000E+00  0.0000E+00  0.0000E+00
    -30.393  0.0000E+00  0.0000E+00  0.0000E+00
    -30.234  0.0000E+00  0.0000E+00  0.0000E+00
    -30.076  0.0000E+00  0.0000E+00  0.0000E+00
    -29.918  0.0000E+00  0.0000E+00  0.0000E+00
    -29.760  0.0000E+00  0.0000E+00  0.0000E+00
    -29.602  0.0000E+00  0.0000E+00  0.0000E+00
    -29.443  0.0000E+00  0.0000E+00  0.0000E+00
    -29.285  0.0000E+00  0.0000E+00  0.0000E+00
    -29.127  0.0000E+00  0.0000E+00  0.0000E+00
    -28.969  0.0000E+00  0.0000E+00  0.0000E+00
    -28.811  0.0000E+00  0.0000E+00  0.0000E+00
    -28.652  0.0000E+00  0.0000E+00  0.0000E+00
    -28.494  0.0000E+00  0.0000E+00  0.0000E+00
    -28.336  0.0000E+00  0.0000E+00  0.0000E+00
    -28.178  0.0000E+00  0.0000E+00  0.0000E+00
    -28.020  0.0000E+00  0.0000E+00  0.0000E+00
    -27.861  0.0000E+00  0.0000E+00  0.0000E+00
    -27.703  0.0000E+00  0.0000E+00  0.0000E+00
    -27.545  0.0000E+00  0.0000E+00  0.0000E+00
    -27.387  0.0000E+00  0.0000E+00  0.0000E+00
    -27.229  0.0000E+00  0.0000E+00  0.0000E+00
    -27.071  0.0000E+00  0.0000E+00  0.0000E+00
    -26.912  0.0000E+00  0.0000E+00  0.0000E+00
    -26.754  0.0000E+00  0.0000E+00  0.0000E+00
    -26.596  0.0000E+00  0.0000E+00  0.0000E+00
    -26.438  0.0000E+00  0.0000E+00  0.0000E+00
    -26.280  0.0000E+00  0.0000E+00  0.0000E+00
    -26.121  0.0000E+00  0.0000E+00  0.0000E+00
    -25.963  0.0000E+00  0.0000E+00  0.0000E+00
    -25.805  0.0000E+00  0.0000E+00  0.0000E+00
    -25.647  0.0000E+00  0.0000E+00  0.0000E+00
    -25.489  0.0000E+00  0.0000E+00  0.0000E+00
    -25.330  0.0000E+00  0.0000E+00  0.0000E+00
    -25.172  0.0000E+00  0.0000E+00  0.0000E+00
    -25.014  0.0000E+00  0.0000E+00  0.0000E+00
    -24.856  0.0000E+00  0.0000E+00  0.0000E+00
    -24.698  0.0000E+00  0.0000E+00  0.0000E+00
    -24.539  0.0000E+00  0.0000E+00  0.0000E+00
    -24.381  0.0000E+00  0.0000E+00  0.0000E+00
    -24.223  0.0000E+00  0.0000E+00  0.0000E+00
    -24.065  0.0000E+00  0.0000E+00  0.0000E+00
    -23.907  0.0000E+00  0.0000E+00  0.0000E+00
    -23.748  0.0000E+00  0.0000E+00  0.0000E+00
    -23.590  0.0000E+00  0.0000E+00  0.0000E+00
    -23.432  0.0000E+00  0.0000E+00  0.0000E+00
    -23.274  0.0000E+00  0.0000E+00  0.0000E+00
    -23.116  0.0000E+00  0.0000E+00  0.0000E+00
    -22.957  0.0000E+00  0.0000E+00  0.0000E+00
    -22.799  0.0000E+00  0.0000E+00  0.0000E+00
    -22.641  0.0000E+00  0.0000E+00  0.0000E+00
    -22.483  0.0000E+00  0.0000E+00  0.0000E+00
    -22.325  0.0000E+00  0.0000E+00  0.0000E+00
    -22.167  0.0000E+00  0.0000E+00  0.0000E+00
    -22.008  0.0000E+00  0.0000E+00  0.0000E+00
    -21.850  0.0000E+00  0.0000E+00  0.0000E+00
    -21.692  0.0000E+00  0.0000E+00  0.0000E+00
    -21.534  0.0000E+00  0.0000E+00  0.0000E+00
    -21.376  0.0000E+00  0.0000E+00  0.0000E+00
    -21.217  0.0000E+00  0.0000E+00  0.0000E+00
    -21.059  0.0000E+00  0.0000E+00  0.0000E+00
    -20.901  0.0000E+00  0.0000E+00  0.0000E+00
    -20.743  0.0000E+00  0.0000E+00  0.0000E+00
    -20.585  0.0000E+00  0.0000E+00  0.0000E+00
    -20.426  0.0000E+00  0.0000E+00  0.0000E+00
    -20.268  0.0000E+00  0.0000E+00  0.0000E+00
    -20.110  0.0000E+00  0.0000E+00  0.0000E+00
    -19.952  0.0000E+00  0.0000E+00  0.0000E+00
    -19.794  0.0000E+00  0.0000E+00  0.0000E+00
    -19.635  0.0000E+00  0.0000E+00  0.0000E+00
    -19.477  0.0000E+00  0.0000E+00  0.0000E+00
    -19.319  0.0000E+00  0.0000E+00  0.0000E+00
    -19.161  0.0000E+00  0.0000E+00  0.0000E+00
    -19.003  0.0000E+00  0.0000E+00  0.0000E+00
    -18.844  0.0000E+00  0.0000E+00  0.0000E+00
    -18.686  0.0000E+00  0.0000E+00  0.0000E+00
    -18.528  0.0000E+00  0.0000E+00  0.0000E+00
    -18.370  0.0000E+00  0.0000E+00  0.0000E+00
    -18.212  0.0000E+00  0.0000E+00  0.0000E+00
    -18.054  0.0000E+00  0.0000E+00  0.0000E+00
    -17.895  0.0000E+00  0.0000E+00  0.0000E+00
    -17.737  0.0000E+00  0.0000E+00  0.0000E+00
    -17.579  0.0000E+00  0.0000E+00  0.0000E+00
    -17.421  0.0000E+00  0.0000E+00  0.0000E+00
    -17.263  0.0000E+00  0.0000E+00  0.0000E+00
    -17.104  0.0000E+00  0.0000E+00  0.0000E+00
    -16.946  0.0000E+00  0.0000E+00  0.0000E+00
    -16.788  0.0000E+00  0.0000E+00  0.0000E+00
    -16.630  0.0000E+00  0.0000E+00  0.0000E+00
    -16.472  0.0000E+00  0.0000E+00  0.0000E+00
    -16.313  0.0000E+00  0.0000E+00  0.0000E+00
    -16.155  0.0000E+00  0.0000E+00  0.0000E+00
    -15.997  0.0000E+00  0.0000E+00  0.0000E+00
    -15.839  0.0000E+00  0.0000E+00  0.0000E+00
    -15.681  0.0000E+00  0.0000E+00  0.0000E+00
    -15.522  0.3094E-13  0.5699E-11  0.0000E+00
    -15.364  0.2317E-02  0.8972E-03  0.0000E+00
    -15.206  0.3871E-10  0.1689E-03  0.0000E+00
    -15.048  0.0000E+00  0.0000E+00  0.0000E+00
    -14.890  0.0000E+00  0.0000E+00  0.0000E+00
    -14.731  0.0000E+00  0.0000E+00  0.0000E+00
    -14.573  0.0000E+00  0.0000E+00  0.0000E+00
    -14.415  0.0000E+00  0.0000E+00  0.0000E+00
    -14.257  0.0000E+00  0.0000E+00  0.0000E+00
    -14.099  0.0000E+00  0.0000E+00  0.0000E+00
    -13.940  0.0000E+00  0.0000E+00  0.0000E+00
    -13.782  0.0000E+00  0.0000E+00  0.0000E+00
    -13.624  0.0000E+00  0.0000E+00  0.0000E+00
    -13.466  0.0000E+00  0.0000E+00  0.0000E+00
    -13.308  0.0000E+00  0.0000E+00  0.0000E+00
    -13.150  0.0000E+00  0.0000E+00  0.0000E+00
    -12.991  0.0000E+00  0.0000E+00  0.0000E+00
    -12.833  0.0000E+00  0.0000E+00  0.0000E+00
    -12.675  0.0000E+00  0.0000E+00  0.0000E+00
    -12.517  0.0000E+00  0.0000E+00  0.0000E+00
    -12.359  0.0000E+00  0.0000E+00  0.0000E+00
    -12.200  0.0000E+00  0.0000E+00  0.0000E+00
    -12.042  0.0000E+00  0.0000E+00  0.0000E+00
    -11.884  0.0000E+00  0.0000E+00  0.0000E+00
    -11.726  0.0000E+00  0.0000E+00  0.0000E+00
    -11.568  0.0000E+00  0.0000E+00  0.0000E+00
    -11.409  0.0000E+00  0.0000E+00  0.0000E+00
    -11.251  0.0000E+00  0.0000E+00  0.0000E+00
    -11.093  0.0000E+00  0.0000E+00  0.0000E+00
    -10.935  0.0000E+00  0.0000E+00  0.0000E+00
    -10.777  0.0000E+00  0.0000E+00  0.0000E+00
    -10.618  0.0000E+00  0.0000E+00  0.0000E+00
    -10.460  0.0000E+00  0.0000E+00  0.0000E+00
    -10.302  0.0000E+00  0.0000E+00  0.0000E+00
    -10.144  0.0000E+00  0.0000E+00  0.0000E+00
     -9.986  0.0000E+00  0.0000E+00  0.0000E+00
     -9.827  0.0000E+00  0.0000E+00  0.0000E+00
     -9.669  0.0000E+00  0.0000E+00  0.0000E+00
     -9.511  0.0000E+00  0.0000E+00  0.0000E+00
     -9.353  0.0000E+00  0.0000E+00  0.0000E+00
     -9.195  0.0000E+00  0.0000E+00  0.0000E+00
     -9.036  0.0000E+00  0.0000E+00  0.0000E+00
     -8.878  0.0000E+00  0.0000E+00  0.0000E+00
     -8.720  0.0000E+00  0.0000E+00  0.0000E+00
     -8.562  0.0000E+00  0.0000E+00  0.0000E+00
     -8.404  0.0000E+00  0.0000E+00  0.0000E+00
     -8.246  0.0000E+00  0.0000E+00  0.0000E+00
     -8.087  0.0000E+00  0.0000E+00  0.0000E+00
     -7.929  0.0000E+00  0.0000E+00  0.0000E+00
     -7.771  0.0000E+00  0.0000E+00  0.0000E+00
     -7.613  0.1693E-03  0.6089E-05  0.0000E+00
     -7.455  0.2112E-02  0.1502E-03  0.0000E+00
     -7.296  0.1031E-02  0.3304E-03  0.0000E+00
     -7.138  0.1169E-02  0.9632E-03  0.0000E+00
     -6.980  0.1313E-03  0.2202E-03  0.0000E+00
     -6.822  0.0000E+00  0.0000E+00  0.0000E+00
     -6.664  0.0000E+00  0.0000E+00  0.0000E+00
     -6.505  0.0000E+00  0.0000E+00  0.0000E+00
     -6.347  0.0000E+00  0.0000E+00  0.0000E+00
     -6.189  0.0000E+00  0.0000E+00  0.0000E+00
     -6.031  0.0000E+00  0.0000E+00  0.0000E+00
     -5.873  0.0000E+00  0.0000E+00  0.0000E+00
     -5.714  0.0000E+00  0.0000E+00  0.0000E+00
     -5.556  0.0000E+00  0.0000E+00  0.0000E+00
     -5.398  0.7464E-02  0.3182E-03  0.0000E+00
     -5.240  0.1281E-01  0.8986E-03  0.0000E+00
     -5.082  0.9783E-02  0.2729E-02  0.0000E+00
     -4.923  0.1060E-02  0.2677E-02  0.0000E+00
     -4.765  0.1660E-01  0.1567E-02  0.0000E+00
     -4.607  0.1991E-04  0.8780E-03  0.0000E+00
     -4.449  0.2867E-03  0.5850E-03  0.0000E+00
     -4.291  0.8166E-18  0.1082E-02  0.0000E+00
     -4.132  0.0000E+00  0.0000E+00  0.0000E+00
     -3.974  0.0000E+00  0.0000E+00  0.0000E+00
     -3.816  0.0000E+00  0.0000E+00  0.0000E+00
     -3.658  0.0000E+00  0.0000E+00  0.0000E+00
     -3.500  0.1465E-07  0.1997E-09  0.0000E+00
     -3.342  0.2975E-01  0.1320E-02  0.0000E+00
     -3.183  0.1618E-01  0.3243E-02  0.0000E+00
     -3.025  0.0000E+00  0.0000E+00  0.0000E+00
     -2.867  0.0000E+00  0.0000E+00  0.0000E+00
     -2.709  0.5057E-01  0.3578E-02  0.0000E+00
     -2.551  0.2549E-01  0.5153E-02  0.0000E+00
     -2.392  0.3739E-02  0.5619E-02  0.0000E+00
     -2.234  0.2586E-01  0.1291E-02  0.0000E+00
     -2.076  0.1493E-01  0.6626E-02  0.0000E+00
     -1.918  0.3102E-01  0.2416E-02  0.0000E+00
     -1.760  0.3245E-14  0.1481E-02  0.0000E+00
     -1.601  0.7140E-01  0.2108E-02  0.0000E+00
     -1.443  0.1467E-19  0.3294E-17  0.0000E+00
     -1.285  0.1276E+00  0.3211E-02  0.0000E+00
     -1.127  0.5232E-01  0.1034E-02  0.0000E+00
     -0.969  0.1465E+00  0.1658E-02  0.0000E+00
     -0.810  0.3038E+00  0.3545E-02  0.0000E+00
     -0.652  0.1760E+00  0.9180E-03  0.0000E+00
     -0.494  0.1109E+01  0.1203E-01  0.0000E+00
     -0.336  0.4794E-02  0.3184E-02  0.0000E+00
     -0.178  0.1901E-06  0.6883E-09  0.0000E+00
     -0.019  0.2208E-01  0.1391E-01  0.0000E+00
      0.139  0.1364E-02  0.5993E-04  0.0000E+00
      0.297  0.1176E-01  0.1348E-02  0.0000E+00
      0.455  0.3259E-02  0.1337E-01  0.0000E+00
      0.613  0.4701E-01  0.1369E-01  0.0000E+00
      0.771  0.3329E-01  0.1117E-01  0.0000E+00
      0.930  0.7854E-01  0.4046E-02  0.0000E+00
      1.088  0.1166E-01  0.3107E-03  0.0000E+00
      1.246  0.0000E+00  0.0000E+00  0.0000E+00
      1.404  0.4323E-08  0.1065E-04  0.0000E+00
      1.562  0.4663E-01  0.6716E-01  0.0000E+00
      1.721  0.2391E-01  0.1694E-01  0.0000E+00
      1.879  0.1090E-01  0.3598E-01  0.0000E+00
      2.037  0.6662E-01  0.3965E-01  0.0000E+00
      2.195  0.4852E-01  0.9071E-01  0.0000E+00
      2.353  0.1707E-01  0.4172E-01  0.0000E+00
      2.512  0.1292E-01  0.3540E-02  0.0000E+00
      2.670  0.8267E-02  0.1414E+00  0.0000E+00
      2.828  0.1634E-01  0.7126E-01  0.0000E+00
      2.986  0.3959E-05  0.8592E-01  0.0000E+00
      3.144  0.2942E-02  0.1531E+00  0.0000E+00
      3.303  0.3408E-02  0.2640E+00  0.0000E+00
      3.461  0.2474E-03  0.1642E+00  0.0000E+00
      3.619  0.2130E-04  0.1433E+00  0.0000E+00
      3.777  0.3127E-05  0.5076E-01  0.0000E+00
      3.935  0.1662E-01  0.5419E-01  0.0000E+00
      4.094  0.9593E-05  0.6598E-02  0.0000E+00
      4.252  0.4948E-01  0.4606E-01  0.0000E+00
      4.410  0.9380E-03  0.8833E-03  0.0000E+00
      4.568  0.8551E-04  0.2293E-01  0.0000E+00
      4.726  0.3300E-01  0.1009E+00  0.0000E+00
      4.885  0.1400E-02  0.3222E-01  0.0000E+00
      5.043  0.3820E-01  0.9048E-01  0.0000E+00
      5.201  0.2856E-01  0.6093E-01  0.0000E+00
      5.359  0.8147E-02  0.4628E-01  0.0000E+00
      5.517  0.1683E-01  0.8007E-01  0.0000E+00
      5.675  0.4468E-02  0.1121E-01  0.0000E+00
      5.834  0.2052E-01  0.7178E-01  0.0000E+00
      5.992  0.1048E-01  0.2021E+00  0.0000E+00
      6.150  0.1782E-02  0.6536E-01  0.0000E+00
      6.308  0.4009E-01  0.1053E+00  0.0000E+00
      6.466  0.2225E-01  0.2868E+00  0.0000E+00
      6.625  0.3528E-02  0.1758E+00  0.0000E+00
      6.783  0.7860E-02  0.1696E-01  0.0000E+00
      6.941  0.4943E-01  0.8912E-01  0.0000E+00
      7.099  0.3439E-01  0.4842E+00  0.0000E+00
      7.257  0.1886E-01  0.3212E+00  0.0000E+00
      7.416  0.5368E-02  0.2655E+00  0.0000E+00
      7.574  0.1144E-02  0.2116E+00  0.0000E+00
      7.732  0.2663E-02  0.2044E+00  0.0000E+00
      7.890  0.5871E-02  0.2121E+00  0.0000E+00
      8.048  0.2341E-02  0.3645E+00  0.0000E+00
      8.207  0.8838E-02  0.9620E-01  0.0000E+00
      8.365  0.6740E-03  0.1969E-01  0.0000E+00
      8.523  0.9237E-16  0.1359E-05  0.0000E+00
      8.681  0.0000E+00  0.0000E+00  0.0000E+00
      8.839  0.1703E-03  0.1434E-01  0.0000E+00
      8.998  0.0000E+00  0.0000E+00  0.0000E+00
      9.156  0.0000E+00  0.0000E+00  0.0000E+00
      9.314  0.0000E+00  0.0000E+00  0.0000E+00
      9.472  0.0000E+00  0.0000E+00  0.0000E+00
      9.630  0.0000E+00  0.0000E+00  0.0000E+00
      9.789  0.0000E+00  0.0000E+00  0.0000E+00
      9.947  0.0000E+00  0.0000E+00  0.0000E+00
     10.105  0.0000E+00  0.0000E+00  0.0000E+00
     10.263  0.0000E+00  0.0000E+00  0.0000E+00
     10.421  0.0000E+00  0.0000E+00  0.0000E+00
     10.579  0.0000E+00  0.0000E+00  0.0000E+00
     10.738  0.0000E+00  0.0000E+00  0.0000E+00
     10.896  0.0000E+00  0.0000E+00  0.0000E+00
     11.054  0.0000E+00  0.0000E+00  0.0000E+00
     11.05405767    -36.40391897  301      6.27214265      1.00000000
    -36.404  0.0000E+00  0.0000E+00  0.0000E+00
    -36.246  0.0000E+00  0.0000E+00  0.0000E+00
    -36.088  0.0000E+00  0.0000E+00  0.0000E+00
    -35.929  0.0000E+00  0.0000E+00  0.0000E+00
    -35.771  0.0000E+00  0.0000E+00  0.0000E+00
    -35.613  0.0000E+00  0.0000E+00  0.0000E+00
    -35.455  0.0000E+00  0.0000E+00  0.0000E+00
    -35.297  0.0000E+00  0.0000E+00  0.0000E+00
    -35.138  0.0000E+00  0.0000E+00  0.0000E+00
    -34.980  0.0000E+00  0.0000E+00  0.0000E+00
    -34.822  0.0000E+00  0.0000E+00  0.0000E+00
    -34.664  0.0000E+00  0.0000E+00  0.0000E+00
    -34.506  0.0000E+00  0.0000E+00  0.0000E+00
    -34.347  0.0000E+00  0.0000E+00  0.0000E+00
    -34.189  0.1245E+02  0.7458E-06  0.8829E-05
    -34.031  0.0000E+00  0.0000E+00  0.0000E+00
    -33.873  0.0000E+00  0.0000E+00  0.0000E+00
    -33.715  0.0000E+00  0.0000E+00  0.0000E+00
    -33.556  0.0000E+00  0.0000E+00  0.0000E+00
    -33.398  0.0000E+00  0.0000E+00  0.0000E+00
    -33.240  0.0000E+00  0.0000E+00  0.0000E+00
    -33.082  0.0000E+00  0.0000E+00  0.0000E+00
    -32.924  0.0000E+00  0.0000E+00  0.0000E+00
    -32.765  0.0000E+00  0.0000E+00  0.0000E+00
    -32.607  0.0000E+00  0.0000E+00  0.0000E+00
    -32.449  0.0000E+00  0.0000E+00  0.0000E+00
    -32.291  0.0000E+00  0.0000E+00  0.0000E+00
    -32.133  0.0000E+00  0.0000E+00  0.0000E+00
    -31.975  0.0000E+00  0.0000E+00  0.0000E+00
    -31.816  0.0000E+00  0.0000E+00  0.0000E+00
    -31.658  0.0000E+00  0.0000E+00  0.0000E+00
    -31.500  0.0000E+00  0.0000E+00  0.0000E+00
    -31.342  0.0000E+00  0.0000E+00  0.0000E+00
    -31.184  0.0000E+00  0.0000E+00  0.0000E+00
    -31.025  0.0000E+00  0.0000E+00  0.0000E+00
    -30.867  0.0000E+00  0.0000E+00  0.0000E+00
    -30.709  0.0000E+00  0.0000E+00  0.0000E+00
    -30.551  0.0000E+00  0.0000E+00  0.0000E+00
    -30.393  0.0000E+00  0.0000E+00  0.0000E+00
    -30.234  0.0000E+00  0.0000E+00  0.0000E+00
    -30.076  0.0000E+00  0.0000E+00  0.0000E+00
    -29.918  0.0000E+00  0.0000E+00  0.0000E+00
    -29.760  0.0000E+00  0.0000E+00  0.0000E+00
    -29.602  0.0000E+00  0.0000E+00  0.0000E+00
    -29.443  0.0000E+00  0.0000E+00  0.0000E+00
    -29.285  0.0000E+00  0.0000E+00  0.0000E+00
    -29.127  0.0000E+00  0.0000E+00  0.0000E+00
    -28.969  0.0000E+00  0.0000E+00  0.0000E+00
    -28.811  0.0000E+00  0.0000E+00  0.0000E+00
    -28.652  0.0000E+00  0.0000E+00  0.0000E+00
    -28.494  0.0000E+00  0.0000E+00  0.0000E+00
    -28.336  0.0000E+00  0.0000E+00  0.0000E+00
    -28.178  0.0000E+00  0.0000E+00  0.0000E+00
    -28.020  0.0000E+00  0.0000E+00  0.0000E+00
    -27.861  0.0000E+00  0.0000E+00  0.0000E+00
    -27.703  0.0000E+00  0.0000E+00  0.0000E+00
    -27.545  0.0000E+00  0.0000E+00  0.0000E+00
    -27.387  0.0000E+00  0.0000E+00  0.0000E+00
    -27.229  0.0000E+00  0.0000E+00  0.0000E+00
    -27.071  0.0000E+00  0.0000E+00  0.0000E+00
    -26.912  0.0000E+00  0.0000E+00  0.0000E+00
    -26.754  0.0000E+00  0.0000E+00  0.0000E+00
    -26.596  0.0000E+00  0.0000E+00  0.0000E+00
    -26.438  0.0000E+00  0.0000E+00  0.0000E+00
    -26.280  0.0000E+00  0.0000E+00  0.0000E+00
    -26.121  0.0000E+00  0.0000E+00  0.0000E+00
    -25.963  0.0000E+00  0.0000E+00  0.0000E+00
    -25.805  0.0000E+00  0.0000E+00  0.0000E+00
    -25.647  0.0000E+00  0.0000E+00  0.0000E+00
    -25.489  0.0000E+00  0.0000E+00  0.0000E+00
    -25.330  0.0000E+00  0.0000E+00  0.0000E+00
    -25.172  0.0000E+00  0.0000E+00  0.0000E+00
    -25.014  0.0000E+00  0.0000E+00  0.0000E+00
    -24.856  0.0000E+00  0.0000E+00  0.0000E+00
    -24.698  0.0000E+00  0.0000E+00  0.0000E+00
    -24.539  0.0000E+00  0.0000E+00  0.0000E+00
    -24.381  0.0000E+00  0.0000E+00  0.0000E+00
    -24.223  0.0000E+00  0.0000E+00  0.0000E+00
    -24.065  0.0000E+00  0.0000E+00  0.0000E+00
    -23.907  0.0000E+00  0.0000E+00  0.0000E+00
    -23.748  0.0000E+00  0.0000E+00  0.0000E+00
    -23.590  0.0000E+00  0.0000E+00  0.0000E+00
    -23.432  0.0000E+00  0.0000E+00  0.0000E+00
    -23.274  0.0000E+00  0.0000E+00  0.0000E+00
    -23.116  0.0000E+00  0.0000E+00  0.0000E+00
    -22.957  0.0000E+00  0.0000E+00  0.0000E+00
    -22.799  0.0000E+00  0.0000E+00  0.0000E+00
    -22.641  0.0000E+00  0.0000E+00  0.0000E+00
    -22.483  0.0000E+00  0.0000E+00  0.0000E+00
    -22.325  0.0000E+00  0.0000E+00  0.0000E+00