    8    8    3    1
  0.1623370E+02  0.4199705E-09  0.5560890E-09  0.5560890E-09  0.1000000E-15
  1.000000000000000E-004
  CAR 
 DFT routine                             
     51     24     30
 
  0.0000000E+00  0.0000000E+00  0.0000000E+00  0.5714286E-02
    1      -34.246738   1.000000
    2      -34.238868   1.000000
    3      -15.376268   1.000000
    4      -15.375469   1.000000
    5      -15.375469   1.000000
    6      -15.354164   1.000000
    7      -15.294188   1.000000
    8      -15.294188   1.000000
    9       -7.696298   1.000000
   10       -4.377365   1.000000
   11       -4.377365   1.000000
   12       -2.061235   1.000000
   13       -1.657731   1.000000
   14       -0.491016   1.000000
   15        1.012369   1.000000
   16        1.963633   1.000000
   17        1.963633   1.000000
   18        2.623965   1.000000
   19        3.540467   1.000000
   20        3.540467   1.000000
   21        5.035719   1.000000
   22        5.157428   1.000000
   23        5.538640   1.000000
   24        5.538640   1.000000
   25        6.082348   1.000000
   26        6.128703   1.000000
   27        7.276069   0.000000
   28        7.299035   0.000000
   29        7.299035   0.000000
   30        7.381670   0.000000
 
  0.1428571E+00 -0.8404954E-33 -0.2381239E-32  0.1142857E-01
    1      -34.246037   1.000000
    2      -34.238174   1.000000
    3      -15.399111   1.000000
    4      -15.371184   1.000000
    5      -15.371184   1.000000
    6      -15.369840   1.000000
    7      -15.292169   1.000000
    8      -15.292169   1.000000
    9       -7.609838   1.000000
   10       -4.389847   1.000000
   11       -4.389847   1.000000
   12       -1.940502   1.000000
   13       -1.598236   1.000000
   14       -0.362911   1.000000
   15        0.852091   1.000000
   16        1.950602   1.000000
   17        1.950602   1.000000
   18        2.313325   1.000000
   19        3.328247   1.000000
   20        3.328247   1.000000
   21        5.050556   1.000000
   22        5.069327   1.000000
   23        5.147620   1.000000
   24        5.472769   1.000000
   25        5.472769   1.000000
   26        6.572325   0.000000
   27        6.575716   0.000000
   28        7.472380   0.000000
   29        7.472380   0.000000
   30        8.130188   0.000000
 
  0.2857143E+00  0.4082666E-32  0.1332713E-31  0.1142857E-01
    1      -34.244449   1.000000
    2      -34.236797   1.000000
    3      -15.449605   1.000000
    4      -15.404784   1.000000
    5      -15.361591   1.000000
    6      -15.361591   1.000000
    7      -15.287585   1.000000
    8      -15.287585   1.000000
    9       -7.406367   1.000000
   10       -4.418358   1.000000
   11       -4.418358   1.000000
   12       -1.607628   1.000000
   13       -1.455056   1.000000
   14       -0.056757   1.000000
   15        0.287131   1.000000
   16        1.945985   1.000000
   17        1.945985   1.000000
   18        2.017532   1.000000
   19        2.889401   1.000000
   20        2.889401   1.000000
   21        3.843322   1.000000
   22        5.062195   1.000000
   23        5.085080   1.000000
   24        5.360708   1.000000
   25        5.360708   1.000000
   26        5.651320   1.000000
   27        7.116069   0.000000
   28        7.813789   0.000000
   29        7.813789   0.000000
   30        8.801031   0.000000
 
  0.4285714E+00  0.7016064E-33  0.1302756E-31  0.1142857E-01
    1      -34.243144   1.000000
    2      -34.235705   1.000000
    3      -15.489296   1.000000
    4      -15.432533   1.000000
    5      -15.353949   1.000000
    6      -15.353949   1.000000
    7      -15.283818   1.000000
    8      -15.283818   1.000000
    9       -7.232097   1.000000
   10       -4.441659   1.000000
   11       -4.441659   1.000000
   12       -1.328750   1.000000
   13       -1.178124   1.000000
   14       -0.349916   1.000000
   15        0.211387   1.000000
   16        1.940699   1.000000
   17        1.997010   1.000000
   18        1.997010   1.000000
   19        2.526760   1.000000
   20        2.526760   1.000000
   21        3.077101   1.000000
   22        4.752829   1.000000
   23        5.114758   1.000000
   24        5.294332   1.000000
   25        5.294332   1.000000
   26        5.349153   1.000000
   27        7.606967   0.000000
   28        8.186102   0.000000
   29        8.186103   0.000000
   30        8.549624   0.000000
 
  0.0000000E+00  0.2000000E+00 -0.6473784E-16  0.2285714E-01
    1      -34.245945   1.000000
    2      -34.239575   1.000000
    3      -15.374122   1.000000
    4      -15.369100   1.000000
    5      -15.367682   1.000000
    6      -15.356241   1.000000
    7      -15.303405   1.000000
    8      -15.301911   1.000000
    9       -7.574992   1.000000
   10       -4.841812   1.000000
   11       -4.332552   1.000000
   12       -1.842943   1.000000
   13       -1.707042   1.000000
   14       -0.123097   1.000000
   15        0.937877   1.000000
   16        1.932556   1.000000
   17        2.236998   1.000000
   18        2.611259   1.000000
   19        3.527283   1.000000
   20        3.666224   1.000000
   21        4.801345   1.000000
   22        5.268820   1.000000
   23        5.295271   1.000000
   24        5.322676   1.000000
   25        6.016152   1.000000
   26        6.525662   0.000000
   27        7.060548   0.000000
   28        7.172777   0.000000
   29        7.180076   0.000000
   30        7.536580   0.000000
 
  0.1428571E+00  0.2000000E+00 -0.6473784E-16  0.4571429E-01
    1      -34.245267   1.000000
    2      -34.238938   1.000000
    3      -15.396296   1.000000
    4      -15.373262   1.000000
    5      -15.364091   1.000000
    6      -15.363620   1.000000
    7      -15.300900   1.000000
    8      -15.299696   1.000000
    9       -7.498873   1.000000
   10       -4.814503   1.000000
   11       -4.342547   1.000000
   12       -1.793534   1.000000
   13       -1.599483   1.000000
   14       -0.037338   1.000000
   15        0.911254   1.000000
   16        1.698059   1.000000
   17        2.229038   1.000000
   18        2.422674   1.000000
   19        3.267205   1.000000
   20        3.429323   1.000000
   21        4.798480   1.000000
   22        4.965367   1.000000
   23        5.041673   1.000000
   24        5.392793   1.000000
   25        5.682009   1.000000
   26        6.533423   0.000000
   27        6.627384   0.000000
   28        7.381048   0.000000
   29        7.664928   0.000000
   30        7.786429   0.000000
 
  0.2857143E+00  0.2000000E+00 -0.6473784E-16  0.4571429E-01
    1      -34.243715   1.000000
    2      -34.237535   1.000000
    3      -15.445056   1.000000
    4      -15.408860   1.000000
    5      -15.355249   1.000000
    6      -15.354532   1.000000
    7      -15.295463   1.000000
    8      -15.294634   1.000000
    9       -7.322074   1.000000
   10       -4.749929   1.000000
   11       -4.365515   1.000000
   12       -1.675285   1.000000
   13       -1.314338   1.000000
   14        0.148099   1.000000
   15        0.572430   1.000000
   16        1.454194   1.000000
   17        2.137165   1.000000
   18        2.232542   1.000000
   19        2.877935   1.000000
   20        2.963574   1.000000
   21        3.967120   1.000000
   22        4.606169   1.000000
   23        4.851934   1.000000
   24        5.285648   1.000000
   25        5.470694   1.000000
   26        6.120237   1.000000
   27        7.230798   0.000000
   28        7.439192   0.000000
   29        8.016990   0.000000
   30        8.079099   0.000000
 
  0.4285714E+00  0.2000000E+00 -0.6473784E-16  0.4571429E-01
    1      -34.242466   1.000000
    2      -34.236429   1.000000
    3      -15.483338   1.000000
    4      -15.437406   1.000000
    5      -15.347921   1.000000
    6      -15.347307   1.000000
    7      -15.291100   1.000000
    8      -15.290467   1.000000
    9       -7.173821   1.000000
   10       -4.693281   1.000000
   11       -4.384444   1.000000
   12       -1.571898   1.000000
   13       -0.997679   1.000000
   14       -0.054908   1.000000
   15        0.476840   1.000000
   16        1.486296   1.000000
   17        1.814615   1.000000
   18        2.290992   1.000000
   19        2.592228   1.000000
   20        2.813688   1.000000
   21        3.189919   1.000000
   22        4.267604   1.000000
   23        4.903163   1.000000
   24        5.060298   1.000000
   25        5.542850   1.000000
   26        5.796998   1.000000
   27        7.339483   0.000000
   28        7.851510   0.000000
   29        8.364012   0.000000
   30        8.374548   0.000000
 
  0.0000000E+00  0.4000000E+00 -0.1294757E-15  0.2285714E-01
    1      -34.243974   1.000000
    2      -34.241547   1.000000
    3      -15.368546   1.000000
    4      -15.361720   1.000000
    5      -15.351148   1.000000
    6      -15.347376   1.000000
    7      -15.325969   1.000000
    8      -15.322149   1.000000
    9       -7.316247   1.000000
   10       -5.492219   1.000000
   11       -4.251292   1.000000
   12       -2.118986   1.000000
   13       -1.212750   1.000000
   14       -0.019521   1.000000
   15        1.509503   1.000000
   16        1.959626   1.000000
   17        2.590677   1.000000
   18        2.641402   1.000000
   19        3.505455   1.000000
   20        3.922258   1.000000
   21        4.004273   1.000000
   22        4.716468   1.000000
   23        5.091058   1.000000
   24        5.862753   1.000000
   25        5.922868   1.000000
   26        6.380742   0.000000
   27        6.804769   0.000000
   28        7.022362   0.000000
   29        7.084145   0.000000
   30        7.473766   0.000000
 
  0.1428571E+00  0.4000000E+00 -0.1294757E-15  0.4571429E-01
    1      -34.243302   1.000000
    2      -34.240893   1.000000
    3      -15.389013   1.000000
    4      -15.380175   1.000000
    5      -15.346541   1.000000
    6      -15.343841   1.000000
    7      -15.322426   1.000000
    8      -15.319417   1.000000
    9       -7.266700   1.000000
   10       -5.414501   1.000000
   11       -4.256506   1.000000
   12       -2.083331   1.000000
   13       -1.114189   1.000000
   14        0.048100   1.000000
   15        1.530515   1.000000
   16        1.720147   1.000000
   17        2.249256   1.000000
   18        2.643821   1.000000
   19        3.296752   1.000000
   20        3.681023   1.000000
   21        3.957109   1.000000
   22        4.478150   1.000000
   23        4.833322   1.000000
   24        6.022639   1.000000
   25        6.077008   1.000000
   26        6.273652   0.415484
   27        6.569811   0.000000
   28        6.648246   0.000000
   29        7.239074   0.000000
   30        8.185783   0.000000
 
  0.2857143E+00  0.4000000E+00 -0.1294757E-15  0.4571429E-01
    1      -34.241807   1.000000
    2      -34.239451   1.000000
    3      -15.433438   1.000000
    4      -15.419613   1.000000
    5      -15.338119   1.000000
    6      -15.336091   1.000000
    7      -15.315146   1.000000
    8      -15.313043   1.000000
    9       -7.154380   1.000000
   10       -5.227257   1.000000
   11       -4.268806   1.000000
   12       -1.998363   1.000000
   13       -0.877691   1.000000
   14        0.213371   1.000000
   15        1.114467   1.000000
   16        1.605871   1.000000
   17        1.689172   1.000000
   18        2.661445   1.000000
   19        3.055137   1.000000
   20        3.106445   1.000000
   21        4.009231   1.000000
   22        4.071941   1.000000
   23        4.273180   1.000000
   24        5.029903   1.000000
   25        6.162199   1.000000
   26        6.498571   0.000000
   27        6.569556   0.000000
   28        7.054414   0.000000
   29        7.650691   0.000000
   30        8.849833   0.000000
 
  0.4285714E+00  0.4000000E+00 -0.1294757E-15  0.4571429E-01
    1      -34.240608   1.000000
    2      -34.238301   1.000000
    3      -15.468279   1.000000
    4      -15.450703   1.000000
    5      -15.331734   1.000000
    6      -15.330097   1.000000
    7      -15.309308   1.000000
    8      -15.307685   1.000000
    9       -7.063237   1.000000
   10       -5.061189   1.000000
   11       -4.279255   1.000000
   12       -1.924551   1.000000
   13       -0.684250   1.000000
   14        0.341588   1.000000
   15        0.823940   1.000000
   16        1.102391   1.000000
   17        1.758127   1.000000
   18        2.675719   1.000000
   19        2.743985   1.000000
   20        3.023155   1.000000
   21        3.656344   1.000000
   22        3.794901   1.000000
   23        4.109274   1.000000
   24        4.422999   1.000000
   25        6.134805   1.000000
   26        6.427801   0.000000
   27        6.712671   0.000000
   28        7.385265   0.000000
   29        7.907500   0.000000
   30        8.896877   0.000000
 
  0.0000000E+00  0.2000000E+00  0.2000000E+00  0.2285714E-01
    1      -34.245356   1.000000
    2      -34.240180   1.000000
    3      -15.380677   1.000000
    4      -15.372378   1.000000
    5      -15.357913   1.000000
    6      -15.344761   1.000000
    7      -15.327842   1.000000
    8      -15.291241   1.000000
    9       -7.458640   1.000000
   10       -4.824292   1.000000
   11       -4.692461   1.000000
   12       -2.316563   1.000000
   13       -1.122458   1.000000
   14        0.265516   1.000000
   15        0.972519   1.000000
   16        2.139481   1.000000
   17        2.233453   1.000000
   18        2.607843   1.000000
   19        3.598940   1.000000
   20        3.673031   1.000000
   21        4.666101   1.000000
   22        4.821786   1.000000
   23        5.265794   1.000000
   24        5.656931   1.000000
   25        5.985966   1.000000
   26        6.268263   0.708363
   27        6.955199   0.000000
   28        6.955926   0.000000
   29        7.474963   0.000000
   30        7.503811   0.000000
 
  0.1428571E+00  0.2000000E+00  0.2000000E+00  0.4571429E-01
    1      -34.244660   1.000000
    2      -34.239546   1.000000
    3      -15.394001   1.000000
    4      -15.376044   1.000000
    5      -15.374838   1.000000
    6      -15.341040   1.000000
    7      -15.324514   1.000000
    8      -15.289283   1.000000
    9       -7.393397   1.000000
   10       -4.803746   1.000000
   11       -4.657431   1.000000
   12       -2.253442   1.000000
   13       -1.062277   1.000000
   14        0.327628   1.000000
   15        0.960801   1.000000
   16        1.955458   1.000000
   17        2.130743   1.000000
   18        2.457898   1.000000
   19        3.364380   1.000000
   20        3.394751   1.000000
   21        4.503409   1.000000
   22        4.699106   1.000000
   23        5.277309   1.000000
   24        5.455055   1.000000
   25        5.554167   1.000000
   26        6.384236   0.000000
   27        7.045652   0.000000
   28        7.102738   0.000000
   29        7.496197   0.000000
   30        7.708971   0.000000
 
  0.2857143E+00  0.2000000E+00  0.2000000E+00  0.4571429E-01
    1      -34.243126   1.000000
    2      -34.238129   1.000000
    3      -15.441265   1.000000
    4      -15.411901   1.000000
    5      -15.365842   1.000000
    6      -15.333338   1.000000
    7      -15.317395   1.000000
    8      -15.284811   1.000000
    9       -7.244812   1.000000
   10       -4.749022   1.000000
   11       -4.579888   1.000000
   12       -2.099445   1.000000
   13       -0.920050   1.000000
   14        0.483827   1.000000
   15        0.738849   1.000000
   16        1.564968   1.000000
   17        2.125131   1.000000
   18        2.214600   1.000000
   19        2.788628   1.000000
   20        3.102812   1.000000
   21        3.898116   1.000000
   22        4.440724   1.000000
   23        4.760202   1.000000
   24        5.342281   1.000000
   25        5.416129   1.000000
   26        6.299076   0.000070
   27        7.352835   0.000000
   28        7.354175   0.000000
   29        7.630443   0.000000
   30        7.997268   0.000000
 
  0.4285714E+00  0.2000000E+00  0.2000000E+00  0.4571429E-01
    1      -34.241877   1.000000
    2      -34.237012   1.000000
    3      -15.478377   1.000000
    4      -15.441214   1.000000
    5      -15.357772   1.000000
    6      -15.327290   1.000000
    7      -15.311639   1.000000
    8      -15.281146   1.000000
    9       -7.123814   1.000000
   10       -4.693554   1.000000
   11       -4.518901   1.000000
   12       -1.960161   1.000000
   13       -0.820450   1.000000
   14        0.431502   1.000000
   15        0.637509   1.000000
   16        1.457127   1.000000
   17        2.003777   1.000000
   18        2.145033   1.000000
   19        2.360363   1.000000
   20        3.036388   1.000000
   21        3.358059   1.000000
   22        3.927459   1.000000
   23        4.835187   1.000000
   24        5.148533   1.000000
   25        5.554908   1.000000
   26        5.950414   1.000000
   27        7.315132   0.000000
   28        7.632428   0.000000
   29        8.006672   0.000000
   30        8.053670   0.000000
 
  0.0000000E+00  0.4000000E+00  0.2000000E+00  0.4571429E-01
    1      -34.243739   1.000000
    2      -34.241749   1.000000
    3      -15.376610   1.000000
    4      -15.367852   1.000000
    5      -15.362325   1.000000
    6      -15.356273   1.000000
    7      -15.318067   1.000000
    8      -15.297476   1.000000
    9       -7.213137   1.000000
   10       -5.378103   1.000000
   11       -4.594790   1.000000
   12       -2.766739   1.000000
   13       -0.567154   1.000000
   14        0.519457   1.000000
   15        1.554465   1.000000
   16        2.164985   1.000000
   17        2.601916   1.000000
   18        2.643983   1.000000
   19        3.573130   1.000000
   20        3.948744   1.000000
   21        3.975396   1.000000
   22        4.396872   1.000000
   23        5.466510   1.000000
   24        5.517228   1.000000
   25        5.958122   1.000000
   26        6.139483   1.000000
   27        6.394457   0.000000
   28        6.569564   0.000000
   29        7.207232   0.000000
   30        7.675744   0.000000
 
  0.1428571E+00  0.4000000E+00  0.2000000E+00  0.9142857E-01
    1      -34.243069   1.000000
    2      -34.241130   1.000000
    3      -15.388074   1.000000
    4      -15.380930   1.000000
    5      -15.371320   1.000000
    6      -15.351941   1.000000
    7      -15.315130   1.000000
    8      -15.295285   1.000000
    9       -7.175812   1.000000
   10       -5.300799   1.000000
   11       -4.565197   1.000000
   12       -2.708505   1.000000
   13       -0.538487   1.000000
   14        0.555656   1.000000
   15        1.569075   1.000000
   16        1.999414   1.000000
   17        2.303512   1.000000
   18        2.642352   1.000000
   19        3.303597   1.000000
   20        3.606305   1.000000
   21        4.010827   1.000000
   22        4.114147   1.000000
   23        5.256556   1.000000
   24        5.591255   1.000000
   25        5.833594   1.000000
   26        6.330717   0.000000
   27        6.396530   0.000000
   28        6.857103   0.000000
   29        6.917454   0.000000
   30        7.835087   0.000000
 
  0.2857143E+00  0.4000000E+00  0.2000000E+00  0.9142857E-01
    1      -34.241574   1.000000
    2      -34.239682   1.000000
    3      -15.431664   1.000000
    4      -15.420398   1.000000
    5      -15.361663   1.000000
    6      -15.342750   1.000000
    7      -15.308963   1.000000
    8      -15.290313   1.000000
    9       -7.094247   1.000000
   10       -5.114705   1.000000
   11       -4.492979   1.000000
   12       -2.568155   1.000000
   13       -0.504314   1.000000
   14        0.644615   1.000000
   15        1.503437   1.000000
   16        1.597454   1.000000
   17        1.907300   1.000000
   18        2.545785   1.000000
   19        2.869854   1.000000
   20        3.224613   1.000000
   21        3.530061   1.000000
   22        4.139022   1.000000
   23        4.701508   1.000000
   24        5.170349   1.000000
   25        5.794808   1.000000
   26        6.488112   0.000000
   27        6.524108   0.000000
   28        7.102829   0.000000
   29        7.241672   0.000000
   30        8.054472   0.000000
 
  0.4285714E+00  0.4000000E+00  0.2000000E+00  0.9142857E-01
    1      -34.240380   1.000000
    2      -34.238520   1.000000
    3      -15.465989   1.000000
    4      -15.451773   1.000000
    5      -15.354164   1.000000
    6      -15.334942   1.000000
    7      -15.304230   1.000000
    8      -15.286229   1.000000
    9       -7.031334   1.000000
   10       -4.949803   1.000000
   11       -4.428636   1.000000
   12       -2.443573   1.000000
   13       -0.537014   1.000000
   14        0.755777   1.000000
   15        1.139694   1.000000
   16        1.474480   1.000000
   17        1.803413   1.000000
   18        2.248805   1.000000
   19        2.834130   1.000000
   20        3.055992   1.000000
   21        3.149214   1.000000
   22        4.192085   1.000000
   23        4.208348   1.000000
   24        4.781677   1.000000
   25        6.019865   1.000000
   26        6.277294   0.233147
   27        6.647008   0.000000
   28        7.443372   0.000000
   29        7.532868   0.000000
   30        7.994454   0.000000
 
  0.0000000E+00  0.4000000E+00  0.4000000E+00  0.2285714E-01
    1      -34.243116   1.000000
    2      -34.242368   1.000000
    3      -15.389517   1.000000
    4      -15.380945   1.000000
    5      -15.366084   1.000000
    6      -15.363966   1.000000
    7      -15.294466   1.000000
    8      -15.286398   1.000000
    9       -7.002066   1.000000
   10       -5.153101   1.000000
   11       -5.091257   1.000000
   12       -3.465861   1.000000
   13        0.055481   1.000000
   14        1.437987   1.000000
   15        1.702250   1.000000
   16        2.621369   1.000000
   17        2.622079   1.000000
   18        2.671436   1.000000
   19        3.705699   1.000000
   20        3.893011   1.000000
   21        4.002033   1.000000
   22        4.092784   1.000000
   23        4.939614   1.000000
   24        5.403692   1.000000
   25        5.774488   1.000000
   26        5.935149   1.000000
   27        6.027433   1.000000
   28        6.419894   0.000000
   29        6.698894   0.000000
   30        7.035164   0.000000
 
  0.1428571E+00  0.4000000E+00  0.4000000E+00  0.4571429E-01
    1      -34.242468   1.000000
    2      -34.241726   1.000000
    3      -15.385881   1.000000
    4      -15.383822   1.000000
    5      -15.382307   1.000000
    6      -15.375913   1.000000
    7      -15.292243   1.000000
    8      -15.284574   1.000000
    9       -6.994850   1.000000
   10       -5.077242   1.000000
   11       -5.006042   1.000000
   12       -3.406036   1.000000
   13        0.003908   1.000000
   14        1.462444   1.000000
   15        1.639549   1.000000
   16        2.366863   1.000000
   17        2.574180   1.000000
   18        2.659116   1.000000
   19        3.442134   1.000000
   20        3.502834   1.000000
   21        3.776709   1.000000
   22        4.072592   1.000000
   23        5.063841   1.000000
   24        5.437554   1.000000
   25        5.675464   1.000000
   26        5.792226   1.000000
   27        6.061692   1.000000
   28        6.513423   0.000000
   29        7.022320   0.000000
   30        7.047439   0.000000
 
  0.2857143E+00  0.4000000E+00  0.4000000E+00  0.4571429E-01
    1      -34.240977   1.000000
    2      -34.240260   1.000000
    3      -15.427381   1.000000
    4      -15.422996   1.000000
    5      -15.373312   1.000000
    6      -15.364742   1.000000
    7      -15.287499   1.000000
    8      -15.280301   1.000000
    9       -6.982131   1.000000
   10       -4.891184   1.000000
   11       -4.804441   1.000000
   12       -3.260327   1.000000
   13       -0.144056   1.000000
   14        1.504837   1.000000
   15        1.521572   1.000000
   16        1.850603   1.000000
   17        2.226140   1.000000
   18        2.551236   1.000000
   19        2.939371   1.000000
   20        3.181002   1.000000
   21        3.426288   1.000000
   22        4.101434   1.000000
   23        5.069502   1.000000
   24        5.238625   1.000000
   25        5.477003   1.000000
   26        5.928842   1.000000
   27        6.275687   0.308124
   28        6.743525   0.000000
   29        6.861139   0.000000
   30        7.415248   0.000000
 
  0.4285714E+00  0.4000000E+00  0.4000000E+00  0.4571429E-01
    1      -34.239793   1.000000
    2      -34.239085   1.000000
    3      -15.460596   1.000000
    4      -15.455158   1.000000
    5      -15.365935   1.000000
    6      -15.354235   1.000000
    7      -15.283900   1.000000
    8      -15.276683   1.000000
    9       -6.975107   1.000000
   10       -4.723618   1.000000
   11       -4.630473   1.000000
   12       -3.129265   1.000000
   13       -0.300694   1.000000
   14        1.420199   1.000000
   15        1.439901   1.000000
   16        1.597190   1.000000
   17        1.780416   1.000000
   18        2.339315   1.000000
   19        2.709536   1.000000
   20        3.164050   1.000000
   21        3.309263   1.000000
   22        4.156222   1.000000
   23        4.710500   1.000000
   24        4.958103   1.000000
   25        5.791770   1.000000
   26        6.266957   0.768347
   27        6.405847   0.000000
   28        6.544364   0.000000
   29        7.062391   0.000000
   30        7.565107   0.000000
