Automatically generated mesh
      24
Reciprocal lattice
    0.00000000000000    0.00000000000000    0.00000000000000             1
    0.14285714285715   -0.00000000000000   -0.00000000000000             2
    0.28571428571428    0.00000000000000    0.00000000000000             2
    0.42857142857143    0.00000000000000    0.00000000000000             2
    0.00000000000000    0.20000000000000   -0.00000000000000             4
    0.14285714285715    0.20000000000000   -0.00000000000000             8
    0.28571428571428    0.20000000000000   -0.00000000000000             8
    0.42857142857143    0.20000000000000   -0.00000000000000             8
    0.00000000000000    0.40000000000000   -0.00000000000000             4
    0.14285714285715    0.40000000000000   -0.00000000000000             8
    0.28571428571428    0.40000000000000   -0.00000000000000             8
    0.42857142857143    0.40000000000000   -0.00000000000000             8
    0.00000000000000    0.20000000000000    0.20000000000000             4
    0.14285714285715    0.20000000000000    0.20000000000000             8
    0.28571428571428    0.20000000000000    0.20000000000000             8
    0.42857142857143    0.20000000000000    0.20000000000000             8
    0.00000000000000    0.40000000000000    0.20000000000000             8
    0.14285714285715    0.40000000000000    0.20000000000000            16
    0.28571428571428    0.40000000000000    0.20000000000000            16
    0.42857142857143    0.40000000000000    0.20000000000000            16
    0.00000000000000    0.40000000000000    0.40000000000000             4
    0.14285714285715    0.40000000000000    0.40000000000000             8
    0.28571428571428    0.40000000000000    0.40000000000000             8
    0.42857142857143    0.40000000000000    0.40000000000000             8
