 vasp.6.2.0 18Jan21 (build May 11 2021 12:08:04) complex                        
  
 executed on             LinuxIFC date 2024.03.21  07:32:34
 running on   10 total cores
 distrk:  each k-point on   10 cores,    1 groups
 distr:  one band on NCORE=   2 cores,    5 groups


--------------------------------------------------------------------------------------------------------


 INCAR:
   SYSTEM = DFT routine
   ISTART = 0
   ICHARG = 2
   LORBIT = 10
   NCORE = 2 up to number-of-cores-per-node
   NPAR = 5
   KPAR = 1
   LELF = F
   LWAVE = F
   LCHARG = F
   ENCUT = 400
   EDIFF = 1E-4
   NELM = 100
   IALGO = 38
   LREAL = F
   PREC = acc
   EDIFFG = 0
   NSW = 3
   ISIF = 3
   IBRION = 1
   POTIM = 0.10
   ISMEAR = 0
   SIGMA = 0.01

 POTCAR:    PAW_PBE B 06Sep2000                   
 POTCAR:    PAW_PBE Ca_sv 06Sep2000               
 POTCAR:    PAW_PBE Fe 06Sep2000                  
 POTCAR:    PAW_PBE P 06Sep2000                   
 POTCAR:    PAW_PBE B 06Sep2000                   
   VRHFIN =B: s2p1                                                                                  
   LEXCH  = PE                                                                                      
   EATOM  =    71.1703 eV,    5.2309 Ry                                                             
                                                                                                    
   TITEL  = PAW_PBE B 06Sep2000                                                                     
   LULTRA =        F    use ultrasoft PP ?                                                          
   IUNSCR =        1    unscreen: 0-lin 1-nonlin 2-no                                               
   RPACOR =    1.200    partial core radius                                                         
   POMASS =   10.811; ZVAL   =    3.000    mass and valenz                                          
   RCORE  =    1.700    outmost cutoff radius                                                       
   RWIGS  =    1.710; RWIGS  =    0.905    wigner-seitz radius (au A)                               
   ENMAX  =  318.614; ENMIN  =  238.960 eV                                                          
   ICORE  =        2    local potential                                                             
   LCOR   =        T    correct aug charges                                                         
   LPAW   =        T    paw PP                                                                      
   EAUG   =  535.514                                                                                
   DEXC   =    0.000                                                                                
   RMAX   =    1.732    core radius for proj-oper                                                   
   RAUG   =    1.300    factor for augmentation sphere                                              
   RDEP   =    1.757    radius for radial grids                                                     
   RDEPT  =    1.436    core radius for aug-charge                                                  
                                                                                                    
   Atomic configuration                                                                             
    4 entries                                                                                       
     n  l   j            E        occ.                                                              
     1  0  0.50      -180.5896   2.0000                                                             
     2  0  0.50        -9.4431   2.0000                                                             
     2  1  0.50        -3.6068   1.0000                                                             
     3  2  1.50        -4.0817   0.0000                                                             
   Description                                                                                      
     l       E           TYP  RCUT    TYP  RCUT                                                     
     0     -9.4430752     23  1.500                                                                 
     0      0.8675899     23  1.500                                                                 
     1     -3.6067955     23  1.700                                                                 
     1      6.1086146     23  1.700                                                                 
     2     -4.0817478      7  1.700                                                                 
  local pseudopotential read in
  partial core-charges read in
  partial kinetic energy density read in
  atomic valenz-charges read in
  non local Contribution for L=           0  read in
    real space projection operators read in
  non local Contribution for L=           0  read in
    real space projection operators read in
  non local Contribution for L=           1  read in
    real space projection operators read in
  non local Contribution for L=           1  read in
    real space projection operators read in
    PAW grid and wavefunctions read in
 
   number of l-projection  operators is LMAX  =           4
   number of lm-projection operators is LMMAX =           8
 
 POTCAR:    PAW_PBE Ca_sv 06Sep2000               
   VRHFIN =Ca: 3s3p4s                                                                               
   LEXCH  = PE                                                                                      
   EATOM  =  1006.0909 eV,   73.9456 Ry                                                             
                                                                                                    
   TITEL  = PAW_PBE Ca_sv 06Sep2000                                                                 
   LULTRA =        F    use ultrasoft PP ?                                                          
   IUNSCR =        1    unscreen: 0-lin 1-nonlin 2-no                                               
   RPACOR =    2.000    partial core radius                                                         
   POMASS =   40.078; ZVAL   =   10.000    mass and valenz                                          
   RCORE  =    2.300    outmost cutoff radius                                                       
   RWIGS  =    2.500; RWIGS  =    1.323    wigner-seitz radius (au A)                               
   ENMAX  =  266.622; ENMIN  =  199.967 eV                                                          
   RCLOC  =    1.808    cutoff for local pot                                                        
   LCOR   =        T    correct aug charges                                                         
   LPAW   =        T    paw PP                                                                      
   EAUG   =  420.852                                                                                
   RMAX   =    2.359    core radius for proj-oper                                                   
   RAUG   =    1.300    factor for augmentation sphere                                              
   RDEP   =    2.392    radius for radial grids                                                     
   RDEPT  =    1.987    core radius for aug-charge                                                  
                                                                                                    
   Atomic configuration                                                                             
    7 entries                                                                                       
     n  l   j            E        occ.                                                              
     1  0  0.50     -3949.1705   2.0000                                                             
     2  0  0.50      -414.3434   2.0000                                                             
     2  1  1.50      -334.7047   6.0000                                                             
     3  0  0.50       -47.0896   2.0000                                                             
     4  0  0.50        -3.7663   2.0000                                                             
     3  1  1.50       -28.0061   6.0000                                                             
     3  2  1.50        -4.0817   0.0000                                                             
   Description                                                                                      
     l       E           TYP  RCUT    TYP  RCUT                                                     
     0    -47.0896403     23  2.300                                                                 
     0     -3.7663320     23  2.300                                                                 
     1    -28.0060855     23  2.300                                                                 
     1      6.8029130     23  2.300                                                                 
     2     -4.0817478     23  2.300                                                                 
     2      0.4464412     23  2.300                                                                 
  local pseudopotential read in
  partial core-charges read in
  partial kinetic energy density read in
  atomic valenz-charges read in
  non local Contribution for L=           0  read in
    real space projection operators read in
  non local Contribution for L=           0  read in
    real space projection operators read in
  non local Contribution for L=           1  read in
    real space projection operators read in
  non local Contribution for L=           1  read in
    real space projection operators read in
  non local Contribution for L=           2  read in
    real space projection operators read in
  non local Contribution for L=           2  read in
    real space projection operators read in
    PAW grid and wavefunctions read in
 
   number of l-projection  operators is LMAX  =           6
   number of lm-projection operators is LMMAX =          18
 
 POTCAR:    PAW_PBE Fe 06Sep2000                  
   VRHFIN =Fe:  d7 s1                                                                               
   LEXCH  = PE                                                                                      
   EATOM  =   594.3153 eV,   43.6809 Ry                                                             
                                                                                                    
   TITEL  = PAW_PBE Fe 06Sep2000                                                                    
   LULTRA =        F    use ultrasoft PP ?                                                          
   IUNSCR =        1    unscreen: 0-lin 1-nonlin 2-no                                               
   RPACOR =    2.000    partial core radius                                                         
   POMASS =   55.847; ZVAL   =    8.000    mass and valenz                                          
   RCORE  =    2.300    outmost cutoff radius                                                       
   RWIGS  =    2.460; RWIGS  =    1.302    wigner-seitz radius (au A)                               
   ENMAX  =  267.882; ENMIN  =  200.911 eV                                                          
   RCLOC  =    1.701    cutoff for local pot                                                        
   LCOR   =        T    correct aug charges                                                         
   LPAW   =        T    paw PP                                                                      
   EAUG   =  511.368                                                                                
   DEXC   =    0.000                                                                                
   RMAX   =    2.356    core radius for proj-oper                                                   
   RAUG   =    1.300    factor for augmentation sphere                                              
   RDEP   =    2.442    radius for radial grids                                                     
   RDEPT  =    1.890    core radius for aug-charge                                                  
                                                                                                    
   Atomic configuration                                                                             
    9 entries                                                                                       
     n  l   j            E        occ.                                                              
     1  0  0.50     -6993.8440   2.0000                                                             
     2  0  0.50      -814.6047   2.0000                                                             
     2  1  1.50      -693.3689   6.0000                                                             
     3  0  0.50       -89.4732   2.0000                                                             
     3  1  1.50       -55.6373   6.0000                                                             
     3  2  2.50        -3.8151   7.0000                                                             
     4  0  0.50        -4.2551   1.0000                                                             
     4  1  1.50        -3.4015   0.0000                                                             
     4  3  2.50        -1.3606   0.0000                                                             
   Description                                                                                      
     l       E           TYP  RCUT    TYP  RCUT                                                     
     2     -3.8151135     23  2.300                                                                 
     2     -5.1756961     23  2.300                                                                 
     0     -4.2550963     23  2.300                                                                 
     0      7.2035603     23  2.300                                                                 
     1     -2.7211652     23  2.300                                                                 
     1     18.4316424     23  2.300                                                                 
  local pseudopotential read in
  partial core-charges read in
  partial kinetic energy density read in
  atomic valenz-charges read in
  non local Contribution for L=           2  read in
    real space projection operators read in
  non local Contribution for L=           2  read in
    real space projection operators read in
  non local Contribution for L=           0  read in
    real space projection operators read in
  non local Contribution for L=           0  read in
    real space projection operators read in
  non local Contribution for L=           1  read in
    real space projection operators read in
  non local Contribution for L=           1  read in
    real space projection operators read in
    PAW grid and wavefunctions read in
 
   number of l-projection  operators is LMAX  =           6
   number of lm-projection operators is LMMAX =          18
 
 POTCAR:    PAW_PBE P 06Sep2000                   
   VRHFIN =P : s2p3                                                                                 
   LEXCH  = PE                                                                                      
   EATOM  =   176.0430 eV,   12.9388 Ry                                                             
                                                                                                    
   TITEL  = PAW_PBE P 06Sep2000                                                                     
   LULTRA =        F    use ultrasoft PP ?                                                          
   IUNSCR =        1    unscreen: 0-lin 1-nonlin 2-no                                               
   RPACOR =    1.500    partial core radius                                                         
   POMASS =   30.974; ZVAL   =    5.000    mass and valenz                                          
   RCORE  =    1.900    outmost cutoff radius                                                       
   RWIGS  =    2.330; RWIGS  =    1.233    wigner-seitz radius (au A)                               
   ENMAX  =  255.040; ENMIN  =  191.280 eV                                                          
   ICORE  =        2    local potential                                                             
   LCOR   =        T    correct aug charges                                                         
   LPAW   =        T    paw PP                                                                      
   EAUG   =  342.924                                                                                
   DEXC   =    0.000                                                                                
   RMAX   =    1.935    core radius for proj-oper                                                   
   RAUG   =    1.300    factor for augmentation sphere                                              
   RDEP   =    1.931    radius for radial grids                                                     
   RDEPT  =    1.794    core radius for aug-charge                                                  
                                                                                                    
   Atomic configuration                                                                             
    6 entries                                                                                       
     n  l   j            E        occ.                                                              
     1  0  0.50     -2084.0982   2.0000                                                             
     2  0  0.50      -173.9859   2.0000                                                             
     2  1  1.50      -124.4865   6.0000                                                             
     3  0  0.50       -13.9692   2.0000                                                             
     3  1  0.50        -5.5067   3.0000                                                             
     3  2  1.50        -5.4423   0.0000                                                             
   Description                                                                                      
     l       E           TYP  RCUT    TYP  RCUT                                                     
     0    -13.9691527     23  1.900                                                                 
     0    -11.7794650     23  1.900                                                                 
     1     -5.5066937     23  1.900                                                                 
     1     -0.2556953     23  1.900                                                                 
     2     -5.4423304     23  1.900                                                                 
  local pseudopotential read in
  partial core-charges read in
  partial kinetic energy density read in
  atomic valenz-charges read in
  non local Contribution for L=           0  read in
    real space projection operators read in
  non local Contribution for L=           0  read in
    real space projection operators read in
  non local Contribution for L=           1  read in
    real space projection operators read in
  non local Contribution for L=           1  read in
    real space projection operators read in
    PAW grid and wavefunctions read in
 
   number of l-projection  operators is LMAX  =           4
   number of lm-projection operators is LMMAX =           8
 
  PAW_PBE B 06Sep2000                   :
 energy of atom  1       EATOM=  -71.1703
 kinetic energy error for atom=    0.0020 (will be added to EATOM!!)
  PAW_PBE Ca_sv 06Sep2000               :
 energy of atom  2       EATOM=-1006.0909
 kinetic energy error for atom=    0.0058 (will be added to EATOM!!)
  PAW_PBE Fe 06Sep2000                  :
 energy of atom  3       EATOM= -594.3153
 kinetic energy error for atom=    0.0088 (will be added to EATOM!!)
  PAW_PBE P 06Sep2000                   :
 energy of atom  4       EATOM= -176.0430
 kinetic energy error for atom=    0.0023 (will be added to EATOM!!)
 
 
 POSCAR: Ca2 Fe1 B1 P4
  positions in direct lattice
  No initial velocities read in
 exchange correlation table for  LEXCH =        8
   RHO(1)=    0.500       N(1)  =     2000
   RHO(2)=  100.500       N(2)  =     4000
 


--------------------------------------------------------------------------------------------------------


 ion  position               nearest neighbor table
   1  0.500  0.500  0.500-   4 2.10   4 2.10
   2  0.502  0.500  0.000-   6 2.89   8 2.89   7 2.89   5 2.89   5 2.90   6 2.90   7 2.90   8 2.90

   3  0.498  0.000  0.500-   6 2.89   8 2.89   7 2.89   5 2.89   5 2.90   6 2.90   7 2.90   8 2.90

   4  0.000  0.500  0.500-   1 2.10   1 2.10   7 2.29   5 2.29   8 2.29   6 2.29
   5  0.000  0.208  0.792-   4 2.29   6 2.32   8 2.32   3 2.89   2 2.89   2 2.90   3 2.90
   6  0.000  0.792  0.792-   4 2.29   5 2.32   7 2.32   3 2.89   2 2.89   2 2.90   3 2.90
   7  0.000  0.792  0.208-   4 2.29   6 2.32   8 2.32   3 2.89   2 2.89   2 2.90   3 2.90
   8  0.000  0.208  0.208-   4 2.29   5 2.32   7 2.32   3 2.89   2 2.89   2 2.90   3 2.90
 
  LATTYP: Found a simple tetragonal cell.
 ALAT       =     5.5608900000
 C/A-ratio  =     0.7552217361
  
  Lattice vectors:
  
 A1 = (   5.5608900000,   0.0000000000,   0.0000000000)
 A2 = (   0.0000000000,   5.5608900000,   0.0000000000)
 A3 = (   0.0000000000,   0.0000000000,   4.1997050000)


Analysis of symmetry for initial positions (statically):
=====================================================================
 Subroutine PRICEL returns:
 Original cell was already a primitive cell.
 

 Routine SETGRP: Setting up the symmetry group for a 
 simple tetragonal supercell.


 Subroutine GETGRP returns: Found  8 space group operations
 (whereof  8 operations were pure point group operations)
 out of a pool of 16 trial point group operations.


The static configuration has the point symmetry D_2d.


Analysis of symmetry for dynamics (positions and initial velocities):
=====================================================================
 Subroutine PRICEL returns:
 Original cell was already a primitive cell.
 

 Routine SETGRP: Setting up the symmetry group for a 
 simple tetragonal supercell.


 Subroutine GETGRP returns: Found  8 space group operations
 (whereof  8 operations were pure point group operations)
 out of a pool of 16 trial point group operations.


The dynamic configuration has the point symmetry D_2d.


 Subroutine INISYM returns: Found  8 space group operations
 (whereof  8 operations are pure point group operations),
 and found     1 'primitive' translations


----------------------------------------------------------------------------------------

                                     Primitive cell                                     

  volume of cell :     129.8696

  direct lattice vectors                    reciprocal lattice vectors
     0.000000000  0.000000000  4.199705000    -0.000000000 -0.000000000  0.238111963
     5.560890000  0.000000000  0.000000000     0.179827330 -0.000000000  0.000000000
     0.000000000  5.560890000  0.000000000     0.000000000  0.179827330  0.000000000

  length of vectors
     4.199705000  5.560890000  5.560890000     0.238111963  0.179827330  0.179827330

  position of ions in fractional coordinates (direct lattice)
     0.500000000  0.500000000  0.500000000
     0.502180000  0.500000000  0.000000000
     0.497820000  0.000000000  0.500000000
     1.000000000  0.500000000  0.500000000
     1.000000000  0.208275000  0.791725000
     1.000000000  0.791725000  0.791725000
     1.000000000  0.791725000  0.208275000
     1.000000000  0.208275000  0.208275000

  ion indices of the primitive-cell ions
   primitive index   ion index
                 1           1
                 2           2
                 3           3
                 4           4
                 5           5
                 6           6
                 7           7
                 8           8

----------------------------------------------------------------------------------------

 
 
 KPOINTS: Automatic mesh                          

Automatic generation of k-mesh.
 Grid dimensions derived from RKLEN:
 generate k-points for:    7    5    5

 Generating k-lattice:

  Cartesian coordinates                     Fractional coordinates (reciprocal lattice)
    -0.000000000 -0.000000000  0.034015995     0.142857143 -0.000000000 -0.000000000
     0.035965466 -0.000000000  0.000000000     0.000000000  0.200000000  0.000000000
     0.000000000  0.035965466  0.000000000     0.000000000  0.000000000  0.200000000

  Length of vectors
     0.034015995  0.035965466  0.035965466

  Shift w.r.t. Gamma in fractional coordinates (k-lattice)
     0.000000000  0.000000000  0.000000000

 
 Subroutine IBZKPT returns following result:
 ===========================================
 
 Found     24 irreducible k-points:
 
 Following reciprocal coordinates:
            Coordinates               Weight
  0.000000  0.000000  0.000000      1.000000
  0.142857 -0.000000 -0.000000      2.000000
  0.285714  0.000000  0.000000      2.000000
  0.428571  0.000000  0.000000      2.000000
  0.000000  0.200000 -0.000000      4.000000
  0.142857  0.200000 -0.000000      8.000000
  0.285714  0.200000 -0.000000      8.000000
  0.428571  0.200000 -0.000000      8.000000
  0.000000  0.400000 -0.000000      4.000000
  0.142857  0.400000 -0.000000      8.000000
  0.285714  0.400000 -0.000000      8.000000
  0.428571  0.400000 -0.000000      8.000000
  0.000000  0.200000  0.200000      4.000000
  0.142857  0.200000  0.200000      8.000000
  0.285714  0.200000  0.200000      8.000000
  0.428571  0.200000  0.200000      8.000000
  0.000000  0.400000  0.200000      8.000000
  0.142857  0.400000  0.200000     16.000000
  0.285714  0.400000  0.200000     16.000000
  0.428571  0.400000  0.200000     16.000000
  0.000000  0.400000  0.400000      4.000000
  0.142857  0.400000  0.400000      8.000000
  0.285714  0.400000  0.400000      8.000000
  0.428571  0.400000  0.400000      8.000000
 
 Following cartesian coordinates:
            Coordinates               Weight
  0.000000  0.000000  0.000000      1.000000
 -0.000000 -0.000000  0.034016      2.000000
 -0.000000 -0.000000  0.068032      2.000000
 -0.000000 -0.000000  0.102048      2.000000
  0.035965 -0.000000  0.000000      4.000000
  0.035965 -0.000000  0.034016      8.000000
  0.035965 -0.000000  0.068032      8.000000
  0.035965 -0.000000  0.102048      8.000000
  0.071931 -0.000000  0.000000      4.000000
  0.071931 -0.000000  0.034016      8.000000
  0.071931 -0.000000  0.068032      8.000000
  0.071931 -0.000000  0.102048      8.000000
  0.035965  0.035965  0.000000      4.000000
  0.035965  0.035965  0.034016      8.000000
  0.035965  0.035965  0.068032      8.000000
  0.035965  0.035965  0.102048      8.000000
  0.071931  0.035965  0.000000      8.000000
  0.071931  0.035965  0.034016     16.000000
  0.071931  0.035965  0.068032     16.000000
  0.071931  0.035965  0.102048     16.000000
  0.071931  0.071931  0.000000      4.000000
  0.071931  0.071931  0.034016      8.000000
  0.071931  0.071931  0.068032      8.000000
  0.071931  0.071931  0.102048      8.000000
 


--------------------------------------------------------------------------------------------------------




 Dimension of arrays:
   k-points           NKPTS =     24   k-points in BZ     NKDIM =     24   number of bands    NBANDS=     30
   number of dos      NEDOS =    301   number of ions     NIONS =      8
   non local maximal  LDIM  =      6   non local SUM 2l+1 LMDIM =     18
   total plane-waves  NPLWV =  36288
   max r-space proj   IRMAX =      1   max aug-charges    IRDMAX=  13529
   dimension x,y,z NGX =    28 NGY =   36 NGZ =   36
   dimension x,y,z NGXF=    56 NGYF=   72 NGZF=   72
   support grid    NGXF=    56 NGYF=   72 NGZF=   72
   ions per type =               1   2   1   4
   NGX,Y,Z   is equivalent  to a cutoff of  11.08, 10.76, 10.76 a.u.
   NGXF,Y,Z  is equivalent  to a cutoff of  22.17, 21.52, 21.52 a.u.

 SYSTEM =  DFT routine                             
 POSCAR =  Ca2 Fe1 B1 P4                           

 Startparameter for this run:
   NWRITE =      2    write-flag & timer
   PREC   = acc       normal or accurate (medium, high low for compatibility)
   ISTART =      0    job   : 0-new  1-cont  2-samecut
   ICHARG =      2    charge: 1-file 2-atom 10-const
   ISPIN  =      1    spin polarized calculation?
   LNONCOLLINEAR =      F non collinear calculations
   LSORBIT =      F    spin-orbit coupling
   INIWAV =      1    electr: 0-lowe 1-rand  2-diag
   LASPH  =      F    aspherical Exc in radial PAW
   METAGGA=      F    non-selfconsistent MetaGGA calc.

 Electronic Relaxation 1
   ENCUT  =  400.0 eV  29.40 Ry    5.42 a.u.   6.85  9.07  9.07*2*pi/ulx,y,z
   ENINI  =  400.0     initial cutoff
   ENAUG  =  535.5 eV  augmentation charge cutoff
   NELM   =    100;   NELMIN=  2; NELMDL= -5     # of ELM steps 
   EDIFF  = 0.1E-03   stopping-criterion for ELM
   LREAL  =      F    real-space projection
   NLSPLINE    = F    spline interpolate recip. space projectors
   LCOMPAT=      F    compatible to vasp.4.4
   GGA_COMPAT  = T    GGA compatible to vasp.4.4-vasp.4.6
   LMAXPAW     = -100 max onsite density
   LMAXMIX     =    2 max onsite mixed and CHGCAR
   VOSKOWN=      0    Vosko Wilk Nusair interpolation
   ROPT   =    0.00000   0.00000   0.00000   0.00000
 Ionic relaxation
   EDIFFG = 0.0E+00   stopping-criterion for IOM
   NSW    =      3    number of steps for IOM
   NBLOCK =      1;   KBLOCK =      3    inner block; outer block 
   IBRION =      1    ionic relax: 0-MD 1-quasi-New 2-CG
   NFREE  =      0    steps in history (QN), initial steepest desc. (CG)
   ISIF   =      3    stress and relaxation
   IWAVPR =     11    prediction:  0-non 1-charg 2-wave 3-comb
   ISYM   =      2    0-nonsym 1-usesym 2-fastsym
   LCORR  =      T    Harris-Foulkes like correction to forces

   POTIM  = 0.1000    time-step for ionic-motion
   TEIN   =    0.0    initial temperature
   TEBEG  =    0.0;   TEEND  =   0.0 temperature during run
   SMASS  =  -3.00    Nose mass-parameter (am)
   estimated Nose-frequenzy (Omega)   =  0.10E-29 period in steps = 0.63E+47 mass=  -0.403E-27a.u.
   SCALEE = 1.0000    scale energy and forces
   NPACO  =    256;   APACO  = 16.0  distance and # of slots for P.C.
   PSTRESS=    0.0 pullay stress

  Mass of Ions in am
   POMASS =  10.81 40.08 55.85 30.97
  Ionic Valenz
   ZVAL   =   3.00 10.00  8.00  5.00
  Atomic Wigner-Seitz radii
   RWIGS  =  -1.00 -1.00 -1.00 -1.00
  virtual crystal weights 
   VCA    =   1.00  1.00  1.00  1.00
   NELECT =      51.0000    total number of electrons
   NUPDOWN=      -1.0000    fix difference up-down

 DOS related values:
   EMIN   =  10.00;   EMAX   =-10.00  energy-range for DOS
   EFERMI =   0.00
   ISMEAR =     0;   SIGMA  =   0.01  broadening in eV -4-tet -1-fermi 0-gaus

 Electronic relaxation 2 (details)
   IALGO  =     38    algorithm
   LDIAG  =      T    sub-space diagonalisation (order eigenvalues)
   LSUBROT=      F    optimize rotation matrix (better conditioning)
   TURBO    =      0    0=normal 1=particle mesh
   IRESTART =      0    0=no restart 2=restart with 2 vectors
   NREBOOT  =      0    no. of reboots
   NMIN     =      0    reboot dimension
   EREF     =   0.00    reference energy to select bands
   IMIX   =      4    mixing-type and parameters
     AMIX     =   0.40;   BMIX     =  1.00
     AMIX_MAG =   1.60;   BMIX_MAG =  1.00
     AMIN     =   0.10
     WC   =   100.;   INIMIX=   1;  MIXPRE=   1;  MAXMIX= -45

 Intra band minimization:
   WEIMIN = 0.0010     energy-eigenvalue tresh-hold
   EBREAK =  0.00E+00  absolut break condition
   DEPER  =   0.30     relativ break condition  

   TIME   =   0.40     timestep for ELM

  volume/ion in A,a.u.               =      16.23       109.55
  Fermi-wavevector in a.u.,A,eV,Ry     =   1.198843  2.265485 19.554637  1.437225
  Thomas-Fermi vector in A             =   2.334722
 
 Write flags
   LWAVE        =      F    write WAVECAR
   LDOWNSAMPLE  =      F    k-point downsampling of WAVECAR
   LCHARG       =      F    write CHGCAR
   LVTOT        =      F    write LOCPOT, total local potential
   LVHAR        =      F    write LOCPOT, Hartree potential only
   LELF         =      F    write electronic localiz. function (ELF)
   LORBIT       =     10    0 simple, 1 ext, 2 COOP (PROOUT), +10 PAW based schemes


 Dipole corrections
   LMONO  =      F    monopole corrections only (constant potential shift)
   LDIPOL =      F    correct potential (dipole corrections)
   IDIPOL =      0    1-x, 2-y, 3-z, 4-all directions 
   EPSILON=  1.0000000 bulk dielectric constant

 Exchange correlation treatment:
   GGA     =    --    GGA type
   LEXCH   =     8    internal setting for exchange type
   VOSKOWN=      0    Vosko Wilk Nusair interpolation
   LHFCALC =     F    Hartree Fock is set to
   LHFONE  =     F    Hartree Fock one center treatment
   AEXX    =    0.0000 exact exchange contribution

 Linear response parameters
   LEPSILON=     F    determine dielectric tensor
   LRPA    =     F    only Hartree local field effects (RPA)
   LNABLA  =     F    use nabla operator in PAW spheres
   LVEL    =     F    velocity operator in full k-point grid
   LINTERFAST=   F  fast interpolation
   KINTER  =     0    interpolate to denser k-point grid
   CSHIFT  =0.1000    complex shift for real part using Kramers Kronig
   OMEGAMAX=  -1.0    maximum frequency
   DEG_THRESHOLD= 0.2000000E-02 threshold for treating states as degnerate
   RTIME   =   -0.100 relaxation time in fs
  (WPLASMAI=    0.000 imaginary part of plasma frequency in eV, 0.658/RTIME)
   DFIELD  = 0.0000000 0.0000000 0.0000000 field for delta impulse in time
 
 Orbital magnetization related:
   ORBITALMAG=     F  switch on orbital magnetization
   LCHIMAG   =     F  perturbation theory with respect to B field
   DQ        =  0.001000  dq finite difference perturbation B field
   LLRAUG    =     F  two centre corrections for induced B field



--------------------------------------------------------------------------------------------------------


 quasi-Newton-method for relaxation of ions
 charge density and potential will be updated during run
 non-spin polarized calculation
 Variant of blocked Davidson
 Davidson routine will perform the subspace rotation
 perform sub-space diagonalisation
    after iterative eigenvector-optimisation
 modified Broyden-mixing scheme, WC =      100.0
 initial mixing is a Kerker type mixing with AMIX =  0.4000 and BMIX =      1.0000
 Hartree-type preconditioning will be used
 using additional bands            4
 reciprocal scheme for non local part
 use partial core corrections
 calculate Harris-corrections to forces 
   (improved forces if not selfconsistent)
 use gradient corrections 
 use of overlap-Matrix (Vanderbilt PP)
 Gauss-broadening in eV      SIGMA  =   0.01


--------------------------------------------------------------------------------------------------------


  energy-cutoff  :      400.00
  volume of cell :      129.87
      direct lattice vectors                 reciprocal lattice vectors
     0.000000000  0.000000000  4.199705000    -0.000000000 -0.000000000  0.238111963
     5.560890000  0.000000000  0.000000000     0.179827330 -0.000000000  0.000000000
     0.000000000  5.560890000  0.000000000     0.000000000  0.179827330  0.000000000

  length of vectors
     4.199705000  5.560890000  5.560890000     0.238111963  0.179827330  0.179827330


 
 k-points in units of 2pi/SCALE and weight: Automatic mesh                          
   0.00000000  0.00000000  0.00000000       0.006
  -0.00000000 -0.00000000  0.03401599       0.011
  -0.00000000 -0.00000000  0.06803199       0.011
  -0.00000000 -0.00000000  0.10204798       0.011
   0.03596547 -0.00000000  0.00000000       0.023
   0.03596547 -0.00000000  0.03401599       0.046
   0.03596547 -0.00000000  0.06803199       0.046
   0.03596547 -0.00000000  0.10204798       0.046
   0.07193093 -0.00000000  0.00000000       0.023
   0.07193093 -0.00000000  0.03401599       0.046
   0.07193093 -0.00000000  0.06803199       0.046
   0.07193093 -0.00000000  0.10204798       0.046
   0.03596547  0.03596547  0.00000000       0.023
   0.03596547  0.03596547  0.03401599       0.046
   0.03596547  0.03596547  0.06803199       0.046
   0.03596547  0.03596547  0.10204798       0.046
   0.07193093  0.03596547  0.00000000       0.046
   0.07193093  0.03596547  0.03401599       0.091
   0.07193093  0.03596547  0.06803199       0.091
   0.07193093  0.03596547  0.10204798       0.091
   0.07193093  0.07193093  0.00000000       0.023
   0.07193093  0.07193093  0.03401599       0.046
   0.07193093  0.07193093  0.06803199       0.046
   0.07193093  0.07193093  0.10204798       0.046
 
 k-points in reciprocal lattice and weights: Automatic mesh                          
   0.00000000  0.00000000  0.00000000       0.006
   0.14285714 -0.00000000 -0.00000000       0.011
   0.28571429  0.00000000  0.00000000       0.011
   0.42857143  0.00000000  0.00000000       0.011
   0.00000000  0.20000000 -0.00000000       0.023
   0.14285714  0.20000000 -0.00000000       0.046
   0.28571429  0.20000000 -0.00000000       0.046
   0.42857143  0.20000000 -0.00000000       0.046
   0.00000000  0.40000000 -0.00000000       0.023
   0.14285714  0.40000000 -0.00000000       0.046
   0.28571429  0.40000000 -0.00000000       0.046
   0.42857143  0.40000000 -0.00000000       0.046
   0.00000000  0.20000000  0.20000000       0.023
   0.14285714  0.20000000  0.20000000       0.046
   0.28571429  0.20000000  0.20000000       0.046
   0.42857143  0.20000000  0.20000000       0.046
   0.00000000  0.40000000  0.20000000       0.046
   0.14285714  0.40000000  0.20000000       0.091
   0.28571429  0.40000000  0.20000000       0.091
   0.42857143  0.40000000  0.20000000       0.091
   0.00000000  0.40000000  0.40000000       0.023
   0.14285714  0.40000000  0.40000000       0.046
   0.28571429  0.40000000  0.40000000       0.046
   0.42857143  0.40000000  0.40000000       0.046
 
 position of ions in fractional coordinates (direct lattice) 
   0.50000000  0.50000000  0.50000000
   0.50218000  0.50000000  0.00000000
   0.49782000  0.00000000  0.50000000
   0.00000000  0.50000000  0.50000000
   0.00000000  0.20827500  0.79172500
   0.00000000  0.79172500  0.79172500
   0.00000000  0.79172500  0.20827500
   0.00000000  0.20827500  0.20827500
 
 position of ions in cartesian coordinates  (Angst):
   2.78044500  2.78044500  2.09985250
   2.78044500  0.00000000  2.10900786
   0.00000000  2.78044500  2.09069714
   2.78044500  2.78044500  0.00000000
   1.15819436  4.40269564  0.00000000
   4.40269564  4.40269564  0.00000000
   4.40269564  1.15819436  0.00000000
   1.15819436  1.15819436  0.00000000
 


--------------------------------------------------------------------------------------------------------


 k-point   1 :   0.0000 0.0000 0.0000  plane waves:    2385
 k-point   2 :   0.1429-0.0000-0.0000  plane waves:    2345
 k-point   3 :   0.2857 0.0000 0.0000  plane waves:    2342
 k-point   4 :   0.4286 0.0000 0.0000  plane waves:    2334
 k-point   5 :   0.0000 0.2000-0.0000  plane waves:    2346
 k-point   6 :   0.1429 0.2000-0.0000  plane waves:    2345
 k-point   7 :   0.2857 0.2000-0.0000  plane waves:    2348
 k-point   8 :   0.4286 0.2000-0.0000  plane waves:    2361
 k-point   9 :   0.0000 0.4000-0.0000  plane waves:    2358
 k-point  10 :   0.1429 0.4000-0.0000  plane waves:    2349
 k-point  11 :   0.2857 0.4000-0.0000  plane waves:    2358
 k-point  12 :   0.4286 0.4000-0.0000  plane waves:    2370
 k-point  13 :   0.0000 0.2000 0.2000  plane waves:    2361
 k-point  14 :   0.1429 0.2000 0.2000  plane waves:    2354
 k-point  15 :   0.2857 0.2000 0.2000  plane waves:    2356
 k-point  16 :   0.4286 0.2000 0.2000  plane waves:    2359
 k-point  17 :   0.0000 0.4000 0.2000  plane waves:    2345
 k-point  18 :   0.1429 0.4000 0.2000  plane waves:    2358
 k-point  19 :   0.2857 0.4000 0.2000  plane waves:    2361
 k-point  20 :   0.4286 0.4000 0.2000  plane waves:    2367
 k-point  21 :   0.0000 0.4000 0.4000  plane waves:    2355
 k-point  22 :   0.1429 0.4000 0.4000  plane waves:    2364
 k-point  23 :   0.2857 0.4000 0.4000  plane waves:    2363
 k-point  24 :   0.4286 0.4000 0.4000  plane waves:    2362

 maximum and minimum number of plane-waves per node :      1194     1161

 maximum number of plane-waves:      2385
 maximum index in each direction: 
   IXMAX=    6   IYMAX=    9   IZMAX=    9
   IXMIN=   -7   IYMIN=   -9   IZMIN=   -9


 parallel 3D FFT for wavefunctions:
    minimum data exchange during FFTs selected (reduces bandwidth)
 parallel 3D FFT for charge:
    minimum data exchange during FFTs selected (reduces bandwidth)


 total amount of memory used by VASP MPI-rank0    54229. kBytes
=======================================================================

   base      :      30000. kBytes
   nonl-proj :      16672. kBytes
   fftplans  :       1594. kBytes
   grid      :       3021. kBytes
   one-center:         62. kBytes
   wavefun   :       2880. kBytes
 
     INWAV:  cpu time    0.0000: real time    0.0000
 Broyden mixing: mesh for mixing (old mesh)
   NGX = 13   NGY = 19   NGZ = 19
  (NGX  = 56   NGY  = 72   NGZ  = 72)
  gives a total of   4693 points

 initial charge density was supplied:
 charge density of overlapping atoms calculated
 number of electron      51.0000000 magnetization 
 keeping initial charge density in first step


--------------------------------------------------------------------------------------------------------


 Maximum index for augmentation-charges         1343 (set IRDMAX)


--------------------------------------------------------------------------------------------------------


 First call to EWALD:  gamma=   0.350
 Maximum number of real-space cells 3x 3x 3
 Maximum number of reciprocal cells 2x 3x 3

    FEWALD:  cpu time    0.0014: real time    0.0014


--------------------------------------- Iteration      1(   1)  ---------------------------------------


    POTLOK:  cpu time    0.0204: real time    0.0205
    SETDIJ:  cpu time    0.0038: real time    0.0038
     EDDAV:  cpu time    0.5554: real time    0.5555
       DOS:  cpu time    0.0008: real time    0.0008
    --------------------------------------------
      LOOP:  cpu time    0.5805: real time    0.5807

 eigenvalue-minimisations  :  1440
 total energy-change (2. order) : 0.3596256E+03  (-0.2050334E+04)
 number of electron      51.0000000 magnetization 
 augmentation part       51.0000000 magnetization 

 Free energy of the ion-electron system (eV)
  ---------------------------------------------------
  alpha Z        PSCENC =       174.13590793
  Ewald energy   TEWEN  =     -2797.39934593
  -Hartree energ DENC   =      -698.29257646
  -exchange      EXHF   =         0.00000000
  -V(xc)+E(xc)   XCENC  =       110.87318655
  PAW double counting   =      2649.58286176    -2603.74504241
  entropy T*S    EENTRO =        -0.00025113
  eigenvalues    EBANDS =       142.66299968
  atomic energy  EATOM  =      3381.80785421
  Solvation  Ediel_sol  =         0.00000000
  ---------------------------------------------------
  free energy    TOTEN  =       359.62559420 eV

  energy without entropy =      359.62584533  energy(sigma->0) =      359.62571976


--------------------------------------------------------------------------------------------------------




--------------------------------------- Iteration      1(   2)  ---------------------------------------


     EDDAV:  cpu time    0.6078: real time    0.6086
       DOS:  cpu time    0.0006: real time    0.0006
    --------------------------------------------
      LOOP:  cpu time    0.6083: real time    0.6091

 eigenvalue-minimisations  :  1470
 total energy-change (2. order) :-0.3680315E+03  (-0.3646406E+03)
 number of electron      51.0000000 magnetization 
 augmentation part       51.0000000 magnetization 

 Free energy of the ion-electron system (eV)
  ---------------------------------------------------
  alpha Z        PSCENC =       174.13590793
  Ewald energy   TEWEN  =     -2797.39934593
  -Hartree energ DENC   =      -698.29257646
  -exchange      EXHF   =         0.00000000
  -V(xc)+E(xc)   XCENC  =       110.87318655
  PAW double counting   =      2649.58286176    -2603.74504241
  entropy T*S    EENTRO =        -0.00010804
  eigenvalues    EBANDS =      -225.36859405
  atomic energy  EATOM  =      3381.80785421
  Solvation  Ediel_sol  =         0.00000000
  ---------------------------------------------------
  free energy    TOTEN  =        -8.40585644 eV

  energy without entropy =       -8.40574840  energy(sigma->0) =       -8.40580242


--------------------------------------------------------------------------------------------------------




--------------------------------------- Iteration      1(   3)  ---------------------------------------


     EDDAV:  cpu time    0.8289: real time    0.8289
       DOS:  cpu time    0.0005: real time    0.0005
    --------------------------------------------
      LOOP:  cpu time    0.8294: real time    0.8295

 eigenvalue-minimisations  :  2530
 total energy-change (2. order) :-0.3671222E+02  (-0.3616051E+02)
 number of electron      51.0000000 magnetization 
 augmentation part       51.0000000 magnetization 

 Free energy of the ion-electron system (eV)
  ---------------------------------------------------
  alpha Z        PSCENC =       174.13590793
  Ewald energy   TEWEN  =     -2797.39934593
  -Hartree energ DENC   =      -698.29257646
  -exchange      EXHF   =         0.00000000
  -V(xc)+E(xc)   XCENC  =       110.87318655
  PAW double counting   =      2649.58286176    -2603.74504241
  entropy T*S    EENTRO =        -0.00008958
  eigenvalues    EBANDS =      -262.08083220
  atomic energy  EATOM  =      3381.80785421
  Solvation  Ediel_sol  =         0.00000000
  ---------------------------------------------------
  free energy    TOTEN  =       -45.11807612 eV

  energy without entropy =      -45.11798655  energy(sigma->0) =      -45.11803133


--------------------------------------------------------------------------------------------------------




--------------------------------------- Iteration      1(   4)  ---------------------------------------


     EDDAV:  cpu time    0.6731: real time    0.6731
       DOS:  cpu time    0.0006: real time    0.0006
    --------------------------------------------
      LOOP:  cpu time    0.6737: real time    0.6737

 eigenvalue-minimisations  :  2150
 total energy-change (2. order) :-0.1835764E+01  (-0.1830878E+01)
 number of electron      51.0000000 magnetization 
 augmentation part       51.0000000 magnetization 

 Free energy of the ion-electron system (eV)
  ---------------------------------------------------
  alpha Z        PSCENC =       174.13590793
  Ewald energy   TEWEN  =     -2797.39934593
  -Hartree energ DENC   =      -698.29257646
  -exchange      EXHF   =         0.00000000
  -V(xc)+E(xc)   XCENC  =       110.87318655
  PAW double counting   =      2649.58286176    -2603.74504241
  entropy T*S    EENTRO =        -0.00040280
  eigenvalues    EBANDS =      -263.91628313
  atomic energy  EATOM  =      3381.80785421
  Solvation  Ediel_sol  =         0.00000000
  ---------------------------------------------------
  free energy    TOTEN  =       -46.95384028 eV

  energy without entropy =      -46.95343748  energy(sigma->0) =      -46.95363888


--------------------------------------------------------------------------------------------------------




--------------------------------------- Iteration      1(   5)  ---------------------------------------


     EDDAV:  cpu time    0.8087: real time    0.8087
       DOS:  cpu time    0.0005: real time    0.0005
    CHARGE:  cpu time    0.0549: real time    0.0549
    MIXING:  cpu time    0.0008: real time    0.0008
    --------------------------------------------
      LOOP:  cpu time    0.8649: real time    0.8649

 eigenvalue-minimisations  :  2410
 total energy-change (2. order) :-0.7535852E-01  (-0.7529271E-01)
 number of electron      51.0000014 magnetization 
 augmentation part        5.0805477 magnetization 

 Broyden mixing:
  rms(total) = 0.29556E+01    rms(broyden)= 0.29555E+01
  rms(prec ) = 0.55868E+01
  weight for this iteration     100.00

 Free energy of the ion-electron system (eV)
  ---------------------------------------------------
  alpha Z        PSCENC =       174.13590793
  Ewald energy   TEWEN  =     -2797.39934593
  -Hartree energ DENC   =      -698.29257646
  -exchange      EXHF   =         0.00000000
  -V(xc)+E(xc)   XCENC  =       110.87318655
  PAW double counting   =      2649.58286176    -2603.74504241
  entropy T*S    EENTRO =        -0.00030615
  eigenvalues    EBANDS =      -263.99173831
  atomic energy  EATOM  =      3381.80785421
  Solvation  Ediel_sol  =         0.00000000
  ---------------------------------------------------
  free energy    TOTEN  =       -47.02919880 eV

  energy without entropy =      -47.02889266  energy(sigma->0) =      -47.02904573


--------------------------------------------------------------------------------------------------------




--------------------------------------- Iteration      1(   6)  ---------------------------------------


    POTLOK:  cpu time    0.0182: real time    0.0182
    SETDIJ:  cpu time    0.0034: real time    0.0034
     EDDAV:  cpu time    0.6492: real time    0.6492
       DOS:  cpu time    0.0004: real time    0.0004
    CHARGE:  cpu time    0.0355: real time    0.0355
    MIXING:  cpu time    0.0005: real time    0.0005
    --------------------------------------------
      LOOP:  cpu time    0.7073: real time    0.7073

 eigenvalue-minimisations  :  1990
 total energy-change (2. order) :-0.4642860E+02  (-0.8788692E+02)
 number of electron      51.0000017 magnetization 
 augmentation part       11.0182191 magnetization 

 Broyden mixing:
  rms(total) = 0.95373E+01    rms(broyden)= 0.95371E+01
  rms(prec ) = 0.12319E+02
  weight for this iteration     100.00

 eigenvalues of (default mixing * dielectric matrix)
  average eigenvalue GAMMA=   0.0928
  0.0928

 Free energy of the ion-electron system (eV)
  ---------------------------------------------------
  alpha Z        PSCENC =       174.13590793
  Ewald energy   TEWEN  =     -2797.39934593
  -Hartree energ DENC   =      -629.25766194
  -exchange      EXHF   =         0.00000000
  -V(xc)+E(xc)   XCENC  =       108.91617081
  PAW double counting   =      3128.40609456    -3079.97329462
  entropy T*S    EENTRO =        -0.00025110
  eigenvalues    EBANDS =      -380.09327471
  atomic energy  EATOM  =      3381.80785421
  Solvation  Ediel_sol  =         0.00000000
  ---------------------------------------------------
  free energy    TOTEN  =       -93.45780079 eV

  energy without entropy =      -93.45754970  energy(sigma->0) =      -93.45767524


--------------------------------------------------------------------------------------------------------




--------------------------------------- Iteration      1(   7)  ---------------------------------------


    POTLOK:  cpu time    0.0131: real time    0.0131
    SETDIJ:  cpu time    0.0023: real time    0.0023
     EDDAV:  cpu time    0.7368: real time    0.7488
       DOS:  cpu time    0.0007: real time    0.0007
    CHARGE:  cpu time    0.0549: real time    0.0549
    MIXING:  cpu time    0.0008: real time    0.0008
    --------------------------------------------
      LOOP:  cpu time    0.8086: real time    0.8206

 eigenvalue-minimisations  :  1740
 total energy-change (2. order) : 0.3617043E+02  (-0.7455877E+01)
 number of electron      51.0000016 magnetization 
 augmentation part       10.1754187 magnetization 

 Broyden mixing:
  rms(total) = 0.36813E+01    rms(broyden)= 0.36813E+01
  rms(prec ) = 0.67822E+01
  weight for this iteration     100.00

 eigenvalues of (default mixing * dielectric matrix)
  average eigenvalue GAMMA=   0.4414
  0.4414  0.4414

 Free energy of the ion-electron system (eV)
  ---------------------------------------------------
  alpha Z        PSCENC =       174.13590793
  Ewald energy   TEWEN  =     -2797.39934593
  -Hartree energ DENC   =      -657.44700841
  -exchange      EXHF   =         0.00000000
  -V(xc)+E(xc)   XCENC  =       109.84893702
  PAW double counting   =      3364.68330333    -3324.45570523
  entropy T*S    EENTRO =        -0.00101671
  eigenvalues    EBANDS =      -308.46030045
  atomic energy  EATOM  =      3381.80785421
  Solvation  Ediel_sol  =         0.00000000
  ---------------------------------------------------
  free energy    TOTEN  =       -57.28737425 eV

  energy without entropy =      -57.28635754  energy(sigma->0) =      -57.28686589


--------------------------------------------------------------------------------------------------------




--------------------------------------- Iteration      1(   8)  ---------------------------------------


    POTLOK:  cpu time    0.0185: real time    0.0185
    SETDIJ:  cpu time    0.0034: real time    0.0034
     EDDAV:  cpu time    0.7607: real time    0.7687
       DOS:  cpu time    0.0004: real time    0.0004
    CHARGE:  cpu time    0.0353: real time    0.0353
    MIXING:  cpu time    0.0005: real time    0.0005
    --------------------------------------------
      LOOP:  cpu time    0.8188: real time    0.8269

 eigenvalue-minimisations  :  2170
 total energy-change (2. order) : 0.1574626E+02  (-0.4528421E+01)
 number of electron      51.0000013 magnetization 
 augmentation part        7.5051273 magnetization 

 Broyden mixing:
  rms(total) = 0.72927E+00    rms(broyden)= 0.72906E+00
  rms(prec ) = 0.92078E+00
  weight for this iteration     100.00

 eigenvalues of (default mixing * dielectric matrix)
  average eigenvalue GAMMA=   0.7826
  1.4502  0.4488  0.4488

 Free energy of the ion-electron system (eV)
  ---------------------------------------------------
  alpha Z        PSCENC =       174.13590793
  Ewald energy   TEWEN  =     -2797.39934593
  -Hartree energ DENC   =      -681.86850562
  -exchange      EXHF   =         0.00000000
  -V(xc)+E(xc)   XCENC  =       110.62626739
  PAW double counting   =      3660.94145105    -3626.51466732
  entropy T*S    EENTRO =        -0.00017474
  eigenvalues    EBANDS =      -263.26990549
  atomic energy  EATOM  =      3381.80785421
  Solvation  Ediel_sol  =         0.00000000
  ---------------------------------------------------
  free energy    TOTEN  =       -41.54111852 eV

  energy without entropy =      -41.54094378  energy(sigma->0) =      -41.54103115


--------------------------------------------------------------------------------------------------------




--------------------------------------- Iteration      1(   9)  ---------------------------------------


    POTLOK:  cpu time    0.0130: real time    0.0130
    SETDIJ:  cpu time    0.0023: real time    0.0023
     EDDAV:  cpu time    0.6636: real time    0.6636
       DOS:  cpu time    0.0007: real time    0.0007
    CHARGE:  cpu time    0.0569: real time    0.0569
    MIXING:  cpu time    0.0008: real time    0.0008
    --------------------------------------------
      LOOP:  cpu time    0.7372: real time    0.7373

 eigenvalue-minimisations  :  1810
 total energy-change (2. order) :-0.5303376E+00  (-0.7332969E+00)
 number of electron      51.0000013 magnetization 
 augmentation part        7.3680250 magnetization 

 Broyden mixing:
  rms(total) = 0.31638E+00    rms(broyden)= 0.31633E+00
  rms(prec ) = 0.42804E+00
  weight for this iteration     100.00

 eigenvalues of (default mixing * dielectric matrix)
  average eigenvalue GAMMA=   0.7671
  0.4568  0.4568  1.3696  0.7850

 Free energy of the ion-electron system (eV)
  ---------------------------------------------------
  alpha Z        PSCENC =       174.13590793
  Ewald energy   TEWEN  =     -2797.39934593
  -Hartree energ DENC   =      -679.14198348
  -exchange      EXHF   =         0.00000000
  -V(xc)+E(xc)   XCENC  =       110.58024058
  PAW double counting   =      4113.72624248    -4082.02694345
  entropy T*S    EENTRO =        -0.00065354
  eigenvalues    EBANDS =      -263.75277494
  atomic energy  EATOM  =      3381.80785421
  Solvation  Ediel_sol  =         0.00000000
  ---------------------------------------------------
  free energy    TOTEN  =       -42.07145615 eV

  energy without entropy =      -42.07080261  energy(sigma->0) =      -42.07112938


--------------------------------------------------------------------------------------------------------




--------------------------------------- Iteration      1(  10)  ---------------------------------------


    POTLOK:  cpu time    0.0184: real time    0.0184
    SETDIJ:  cpu time    0.0027: real time    0.0027
     EDDAV:  cpu time    0.7532: real time    0.7532
       DOS:  cpu time    0.0006: real time    0.0006
    CHARGE:  cpu time    0.0558: real time    0.0558
    MIXING:  cpu time    0.0008: real time    0.0008
    --------------------------------------------
      LOOP:  cpu time    0.8315: real time    0.8315

 eigenvalue-minimisations  :  2120
 total energy-change (2. order) : 0.9371586E-02  (-0.3584993E-01)
 number of electron      51.0000013 magnetization 
 augmentation part        7.4864991 magnetization 

 Broyden mixing:
  rms(total) = 0.21315E+00    rms(broyden)= 0.21314E+00
  rms(prec ) = 0.40418E+00
  weight for this iteration     100.00

 eigenvalues of (default mixing * dielectric matrix)
  average eigenvalue GAMMA=   0.9587
  1.6216  1.6216  0.4512  0.4512  0.6476

 Free energy of the ion-electron system (eV)
  ---------------------------------------------------
  alpha Z        PSCENC =       174.13590793
  Ewald energy   TEWEN  =     -2797.39934593
  -Hartree energ DENC   =      -677.08866864
  -exchange      EXHF   =         0.00000000
  -V(xc)+E(xc)   XCENC  =       110.55719265
  PAW double counting   =      4302.73965677    -4273.48521362
  entropy T*S    EENTRO =        -0.00017427
  eigenvalues    EBANDS =      -263.32929366
  atomic energy  EATOM  =      3381.80785421
  Solvation  Ediel_sol  =         0.00000000
  ---------------------------------------------------
  free energy    TOTEN  =       -42.06208456 eV

  energy without entropy =      -42.06191030  energy(sigma->0) =      -42.06199743


--------------------------------------------------------------------------------------------------------




--------------------------------------- Iteration      1(  11)  ---------------------------------------


    POTLOK:  cpu time    0.0184: real time    0.0184
    SETDIJ:  cpu time    0.0034: real time    0.0034
     EDDAV:  cpu time    0.6423: real time    0.6423
       DOS:  cpu time    0.0007: real time    0.0007
    CHARGE:  cpu time    0.0380: real time    0.0380
    MIXING:  cpu time    0.0006: real time    0.0006
    --------------------------------------------
      LOOP:  cpu time    0.7034: real time    0.7034

 eigenvalue-minimisations  :  2110
 total energy-change (2. order) : 0.2252844E-01  (-0.2968906E-01)
 number of electron      51.0000013 magnetization 
 augmentation part        7.2719482 magnetization 

 Broyden mixing:
  rms(total) = 0.65651E-01    rms(broyden)= 0.65606E-01
  rms(prec ) = 0.13224E+00
  weight for this iteration     100.00

 eigenvalues of (default mixing * dielectric matrix)
  average eigenvalue GAMMA=   1.0371
  2.2457  0.4510  0.4510  1.2162  1.2162  0.6425

 Free energy of the ion-electron system (eV)
  ---------------------------------------------------
  alpha Z        PSCENC =       174.13590793
  Ewald energy   TEWEN  =     -2797.39934593
  -Hartree energ DENC   =      -677.53877422
  -exchange      EXHF   =         0.00000000
  -V(xc)+E(xc)   XCENC  =       110.60597256
  PAW double counting   =      4341.08168675    -4313.21827496
  entropy T*S    EENTRO =        -0.00071737
  eigenvalues    EBANDS =      -261.51386508
  atomic energy  EATOM  =      3381.80785421
  Solvation  Ediel_sol  =         0.00000000
  ---------------------------------------------------
  free energy    TOTEN  =       -42.03955612 eV

  energy without entropy =      -42.03883875  energy(sigma->0) =      -42.03919743


--------------------------------------------------------------------------------------------------------




--------------------------------------- Iteration      1(  12)  ---------------------------------------


    POTLOK:  cpu time    0.0130: real time    0.0130
    SETDIJ:  cpu time    0.0022: real time    0.0022
     EDDAV:  cpu time    0.7547: real time    0.7548
       DOS:  cpu time    0.0006: real time    0.0006
    CHARGE:  cpu time    0.0531: real time    0.0531
    MIXING:  cpu time    0.0009: real time    0.0009
    --------------------------------------------
      LOOP:  cpu time    0.8246: real time    0.8247

 eigenvalue-minimisations  :  2110
 total energy-change (2. order) :-0.1342159E-02  (-0.7550742E-02)
 number of electron      51.0000013 magnetization 
 augmentation part        7.3744698 magnetization 

 Broyden mixing:
  rms(total) = 0.68709E-01    rms(broyden)= 0.68699E-01
  rms(prec ) = 0.13122E+00
  weight for this iteration     100.00

 eigenvalues of (default mixing * dielectric matrix)
  average eigenvalue GAMMA=   1.0112
  1.9221  1.7380  0.4508  0.4508  0.9376  0.9376  0.6411

 Free energy of the ion-electron system (eV)
  ---------------------------------------------------
  alpha Z        PSCENC =       174.13590793
  Ewald energy   TEWEN  =     -2797.39934593
  -Hartree energ DENC   =      -676.89908835
  -exchange      EXHF   =         0.00000000
  -V(xc)+E(xc)   XCENC  =       110.60358322
  PAW double counting   =      4369.56945458    -4342.04921722
  entropy T*S    EENTRO =        -0.00017593
  eigenvalues    EBANDS =      -261.80987079
  atomic energy  EATOM  =      3381.80785421
  Solvation  Ediel_sol  =         0.00000000
  ---------------------------------------------------
  free energy    TOTEN  =       -42.04089828 eV

  energy without entropy =      -42.04072235  energy(sigma->0) =      -42.04081031


--------------------------------------------------------------------------------------------------------




--------------------------------------- Iteration      1(  13)  ---------------------------------------


    POTLOK:  cpu time    0.0188: real time    0.0188
    SETDIJ:  cpu time    0.0034: real time    0.0034
     EDDAV:  cpu time    0.8345: real time    0.8345
       DOS:  cpu time    0.0006: real time    0.0006
    CHARGE:  cpu time    0.0515: real time    0.0515
    MIXING:  cpu time    0.0009: real time    0.0008
    --------------------------------------------
      LOOP:  cpu time    0.9096: real time    0.9097

 eigenvalue-minimisations  :  2250
 total energy-change (2. order) : 0.2236565E-02  (-0.9249838E-03)
 number of electron      51.0000013 magnetization 
 augmentation part        7.3394033 magnetization 

 Broyden mixing:
  rms(total) = 0.28616E-01    rms(broyden)= 0.28615E-01
  rms(prec ) = 0.50885E-01
  weight for this iteration     100.00

 eigenvalues of (default mixing * dielectric matrix)
  average eigenvalue GAMMA=   1.0963
  1.9891  1.9891  0.4508  0.4508  1.2741  0.9970  0.9970  0.6222

 Free energy of the ion-electron system (eV)
  ---------------------------------------------------
  alpha Z        PSCENC =       174.13590793
  Ewald energy   TEWEN  =     -2797.39934593
  -Hartree energ DENC   =      -677.19113618
  -exchange      EXHF   =         0.00000000
  -V(xc)+E(xc)   XCENC  =       110.61702662
  PAW double counting   =      4348.04755160    -4320.50633022
  entropy T*S    EENTRO =        -0.00022374
  eigenvalues    EBANDS =      -261.54996601
  atomic energy  EATOM  =      3381.80785421
  Solvation  Ediel_sol  =         0.00000000
  ---------------------------------------------------
  free energy    TOTEN  =       -42.03866171 eV

  energy without entropy =      -42.03843798  energy(sigma->0) =      -42.03854985


--------------------------------------------------------------------------------------------------------




--------------------------------------- Iteration      1(  14)  ---------------------------------------


    POTLOK:  cpu time    0.0189: real time    0.0189
    SETDIJ:  cpu time    0.0029: real time    0.0029
     EDDAV:  cpu time    0.9040: real time    0.9041
       DOS:  cpu time    0.0006: real time    0.0006
    CHARGE:  cpu time    0.0480: real time    0.0480
    MIXING:  cpu time    0.0010: real time    0.0010
    --------------------------------------------
      LOOP:  cpu time    0.9755: real time    0.9755

 eigenvalue-minimisations  :  2160
 total energy-change (2. order) : 0.1554961E-03  (-0.3228347E-03)
 number of electron      51.0000013 magnetization 
 augmentation part        7.3178888 magnetization 

 Broyden mixing:
  rms(total) = 0.51622E-02    rms(broyden)= 0.51560E-02
  rms(prec ) = 0.10101E-01
  weight for this iteration     100.00

 eigenvalues of (default mixing * dielectric matrix)
  average eigenvalue GAMMA=   1.1107
  2.2760  1.7914  1.4846  0.4508  0.4508  1.1282  0.8911  0.8911  0.6322

 Free energy of the ion-electron system (eV)
  ---------------------------------------------------
  alpha Z        PSCENC =       174.13590793
  Ewald energy   TEWEN  =     -2797.39934593
  -Hartree energ DENC   =      -677.42390262
  -exchange      EXHF   =         0.00000000
  -V(xc)+E(xc)   XCENC  =       110.63267600
  PAW double counting   =      4334.66861039    -4307.18134042
  entropy T*S    EENTRO =        -0.00033720
  eigenvalues    EBANDS =      -261.27862858
  atomic energy  EATOM  =      3381.80785421
  Solvation  Ediel_sol  =         0.00000000
  ---------------------------------------------------
  free energy    TOTEN  =       -42.03850622 eV

  energy without entropy =      -42.03816902  energy(sigma->0) =      -42.03833762


--------------------------------------------------------------------------------------------------------




--------------------------------------- Iteration      1(  15)  ---------------------------------------


    POTLOK:  cpu time    0.0189: real time    0.0189
    SETDIJ:  cpu time    0.0034: real time    0.0034
     EDDAV:  cpu time    0.7661: real time    0.7662
       DOS:  cpu time    0.0004: real time    0.0004
    --------------------------------------------
      LOOP:  cpu time    0.7888: real time    0.7888

 eigenvalue-minimisations  :  2240
 total energy-change (2. order) :-0.1412138E-04  (-0.3066729E-04)
 number of electron      51.0000013 magnetization 
 augmentation part        7.3178888 magnetization 

 Free energy of the ion-electron system (eV)
  ---------------------------------------------------
  alpha Z        PSCENC =       174.13590793
  Ewald energy   TEWEN  =     -2797.39934593
  -Hartree energ DENC   =      -677.47762925
  -exchange      EXHF   =         0.00000000
  -V(xc)+E(xc)   XCENC  =       110.63610495
  PAW double counting   =      4334.40899462    -4306.93485133
  entropy T*S    EENTRO =        -0.00032876
  eigenvalues    EBANDS =      -261.21522677
  atomic energy  EATOM  =      3381.80785421
  Solvation  Ediel_sol  =         0.00000000
  ---------------------------------------------------
  free energy    TOTEN  =       -42.03852034 eV

  energy without entropy =      -42.03819158  energy(sigma->0) =      -42.03835596


--------------------------------------------------------------------------------------------------------




 average (electrostatic) potential at core
  the test charge radii are     0.7672  1.1137  1.0103  0.9587
  (the norm of the test charge is              1.0000)
       1 -27.0355       2 -42.5446       3 -42.5446       4 -42.9203       5 -82.6418
       6 -82.6418       7 -82.6418       8 -82.6418
 
 
 
 E-fermi :   6.6994     XC(G=0): -10.6502     alpha+bet :-13.4562

 Fermi energy:         6.6993706352

 k-point     1 :       0.0000    0.0000    0.0000
  band No.  band energies     occupation 
      1     -33.7559      2.00000
      2     -33.7444      2.00000
      3     -14.9147      2.00000
      4     -14.9104      2.00000
      5     -14.9104      2.00000
      6     -14.8841      2.00000
      7     -14.8057      2.00000
      8     -14.8057      2.00000
      9      -7.5962      2.00000
     10      -4.0501      2.00000
     11      -4.0501      2.00000
     12      -1.8371      2.00000
     13      -1.2894      2.00000
     14      -0.4149      2.00000
     15       1.1693      2.00000
     16       2.2283      2.00000
     17       2.2283      2.00000
     18       2.6589      2.00000
     19       3.6186      2.00000
     20       3.6186      2.00000
     21       5.3121      2.00000
     22       5.4847      2.00000
     23       5.9350      2.00000
     24       5.9350      2.00000
     25       6.4096      2.00000
     26       6.4152      2.00000
     27       7.6153      0.00000
     28       7.6154      0.00000
     29       7.6388      0.00000
     30       7.7015      0.00000

 k-point     2 :       0.1429   -0.0000   -0.0000
  band No.  band energies     occupation 
      1     -33.7552      2.00000
      2     -33.7438      2.00000
      3     -14.9386      2.00000
      4     -14.9061      2.00000
      5     -14.9061      2.00000
      6     -14.8990      2.00000
      7     -14.8039      2.00000
      8     -14.8039      2.00000
      9      -7.5078      2.00000
     10      -4.0701      2.00000
     11      -4.0701      2.00000
     12      -1.7283      2.00000
     13      -1.2369      2.00000
     14      -0.2896      2.00000
     15       0.9506      2.00000
     16       2.2094      2.00000
     17       2.2094      2.00000
     18       2.4693      2.00000
     19       3.4488      2.00000
     20       3.4488      2.00000
     21       5.3259      2.00000
     22       5.3912      2.00000
     23       5.4732      2.00000
     24       5.9014      2.00000
     25       5.9014      2.00000
     26       6.8604      0.00000
     27       6.9749      0.00000
     28       7.7948      0.00000
     29       7.7948      0.00000
     30       8.4396      0.00000

 k-point     3 :       0.2857    0.0000    0.0000
  band No.  band energies     occupation 
      1     -33.7538      2.00000
      2     -33.7426      2.00000
      3     -14.9914      2.00000
      4     -14.9324      2.00000
      5     -14.8966      2.00000
      6     -14.8966      2.00000
      7     -14.7997      2.00000
      8     -14.7997      2.00000
      9      -7.3004      2.00000
     10      -4.1151      2.00000
     11      -4.1151      2.00000
     12      -1.4291      2.00000
     13      -1.1114      2.00000
     14       0.0095      2.00000
     15       0.3290      2.00000
     16       2.1896      2.00000
     17       2.1896      2.00000
     18       2.3127      2.00000
     19       3.0864      2.00000
     20       3.0864      2.00000
     21       4.2049      2.00000
     22       5.3588      2.00000
     23       5.3973      2.00000
     24       5.8555      2.00000
     25       5.8555      2.00000
     26       6.0921      2.00000
     27       7.4401      0.00000
     28       8.1758      0.00000
     29       8.1758      0.00000
     30       9.4218      0.00000

 k-point     4 :       0.4286    0.0000    0.0000
  band No.  band energies     occupation 
      1     -33.7526      2.00000
      2     -33.7417      2.00000
      3     -15.0328      2.00000
      4     -14.9588      2.00000
      5     -14.8889      2.00000
      6     -14.8889      2.00000
      7     -14.7963      2.00000
      8     -14.7963      2.00000
      9      -7.1234      2.00000
     10      -4.1515      2.00000
     11      -4.1515      2.00000
     12      -1.0357      2.00000
     13      -1.0020      2.00000
     14      -0.3089      2.00000
     15       0.2709      2.00000
     16       2.2145      2.00000
     17       2.2145      2.00000
     18       2.2900      2.00000
     19       2.7873      2.00000
     20       2.7873      2.00000
     21       3.4697      2.00000
     22       5.1667      2.00000
     23       5.3880      2.00000
     24       5.7460      2.00000
     25       5.8364      2.00000
     26       5.8364      2.00000
     27       8.0147      0.00000
     28       8.5718      0.00000
     29       8.5718      0.00000
     30       9.1809      0.00000

 k-point     5 :       0.0000    0.2000   -0.0000
  band No.  band energies     occupation 
      1     -33.7547      2.00000
      2     -33.7455      2.00000
      3     -14.9117      2.00000
      4     -14.9024      2.00000
      5     -14.9004      2.00000
      6     -14.8870      2.00000
      7     -14.8178      2.00000
      8     -14.8157      2.00000
      9      -7.4557      2.00000
     10      -4.6097      2.00000
     11      -3.9990      2.00000
     12      -1.4940      2.00000
     13      -1.4337      2.00000
     14       0.0275      2.00000
     15       1.1394      2.00000
     16       2.1171      2.00000
     17       2.4768      2.00000
     18       2.6621      2.00000
     19       3.5736      2.00000
     20       3.7536      2.00000
     21       5.0676      2.00000
     22       5.5991      2.00000
     23       5.6362      2.00000
     24       5.7168      2.00000
     25       6.3149      2.00000
     26       6.8883      0.00000
     27       7.5022      0.00000
     28       7.5144      0.00000
     29       7.5752      0.00000
     30       7.8909      0.00000

 k-point     6 :       0.1429    0.2000   -0.0000
  band No.  band energies     occupation 
      1     -33.7541      2.00000
      2     -33.7449      2.00000
      3     -14.9348      2.00000
      4     -14.9041      2.00000
      5     -14.8967      2.00000
      6     -14.8964      2.00000
      7     -14.8154      2.00000
      8     -14.8137      2.00000
      9      -7.3779      2.00000
     10      -4.5871      2.00000
     11      -4.0161      2.00000
     12      -1.4523      2.00000
     13      -1.3378      2.00000
     14       0.1043      2.00000
     15       1.0697      2.00000
     16       1.8509      2.00000
     17       2.4643      2.00000
     18       2.5909      2.00000
     19       3.3825      2.00000
     20       3.5582      2.00000
     21       5.0752      2.00000
     22       5.2968      2.00000
     23       5.3808      2.00000
     24       5.8067      2.00000
     25       6.0888      2.00000
     26       6.8181      0.00000
     27       7.0409      0.00000
     28       7.8772      0.00000
     29       8.0356      0.00000
     30       8.1684      0.00000

 k-point     7 :       0.2857    0.2000   -0.0000
  band No.  band energies     occupation 
      1     -33.7527      2.00000
      2     -33.7437      2.00000
      3     -14.9854      2.00000
      4     -14.9377      2.00000
      5     -14.8884      2.00000
      6     -14.8873      2.00000
      7     -14.8102      2.00000
      8     -14.8090      2.00000
      9      -7.1975      2.00000
     10      -4.5336      2.00000
     11      -4.0549      2.00000
     12      -1.3535      2.00000
     13      -1.0899      2.00000
     14       0.2498      2.00000
     15       0.6778      2.00000
     16       1.6750      2.00000
     17       2.3480      2.00000
     18       2.4561      2.00000
     19       3.1285      2.00000
     20       3.1616      2.00000
     21       4.3290      2.00000
     22       4.9891      2.00000
     23       5.1311      2.00000
     24       5.7495      2.00000
     25       5.9144      2.00000
     26       6.6029      2.00000
     27       7.5649      0.00000
     28       7.9836      0.00000
     29       8.3955      0.00000
     30       8.4116      0.00000

 k-point     8 :       0.4286    0.2000   -0.0000
  band No.  band energies     occupation 
      1     -33.7516      2.00000
      2     -33.7428      2.00000
      3     -15.0250      2.00000
      4     -14.9651      2.00000
      5     -14.8810      2.00000
      6     -14.8801      2.00000
      7     -14.8061      2.00000
      8     -14.8051      2.00000
      9      -7.0466      2.00000
     10      -4.4865      2.00000
     11      -4.0864      2.00000
     12      -1.2682      2.00000
     13      -0.8282      2.00000
     14       0.0155      2.00000
     15       0.6225      2.00000
     16       1.7509      2.00000
     17       2.0074      2.00000
     18       2.4906      2.00000
     19       2.8472      2.00000
     20       3.1423      2.00000
     21       3.5700      2.00000
     22       4.6942      2.00000
     23       5.1829      2.00000
     24       5.5635      2.00000
     25       5.9975      2.00000
     26       6.3199      2.00000
     27       7.9550      0.00000
     28       8.1312      0.00000
     29       8.7702      0.00000
     30       8.7770      0.00000

 k-point     9 :       0.0000    0.4000   -0.0000
  band No.  band energies     occupation 
      1     -33.7519      2.00000
      2     -33.7483      2.00000
      3     -14.9040      2.00000
      4     -14.8945      2.00000
      5     -14.8794      2.00000
      6     -14.8742      2.00000
      7     -14.8472      2.00000
      8     -14.8419      2.00000
      9      -7.1437      2.00000
     10      -5.3747      2.00000
     11      -3.9048      2.00000
     12      -1.7991      2.00000
     13      -0.8856      2.00000
     14       0.1705      2.00000
     15       1.7871      2.00000
     16       2.1321      2.00000
     17       2.6688      2.00000
     18       2.8201      2.00000
     19       3.4991      2.00000
     20       4.1096      2.00000
     21       4.1359      2.00000
     22       4.9659      2.00000
     23       5.4199      2.00000
     24       6.1125      2.00000
     25       6.4743      2.00000
     26       6.8883      0.00000
     27       7.2805      0.00000
     28       7.4420      0.00000
     29       7.5218      0.00000
     30       7.8111      0.00000

 k-point    10 :       0.1429    0.4000   -0.0000
  band No.  band energies     occupation 
      1     -33.7513      2.00000
      2     -33.7478      2.00000
      3     -14.9248      2.00000
      4     -14.9129      2.00000
      5     -14.8747      2.00000
      6     -14.8708      2.00000
      7     -14.8435      2.00000
      8     -14.8392      2.00000
      9      -7.0943      2.00000
     10      -5.3007      2.00000
     11      -3.9164      2.00000
     12      -1.7723      2.00000
     13      -0.7987      2.00000
     14       0.2289      2.00000
     15       1.6996      2.00000
     16       1.9516      2.00000
     17       2.3807      2.00000
     18       2.8188      2.00000
     19       3.4157      2.00000
     20       3.8290      2.00000
     21       4.1652      2.00000
     22       4.7728      2.00000
     23       5.1825      2.00000
     24       6.3931      2.00000
     25       6.6093      2.00000
     26       6.6265      2.00000
     27       7.0038      0.00000
     28       7.0554      0.00000
     29       7.8597      0.00000
     30       8.5290      0.00000

 k-point    11 :       0.2857    0.4000   -0.0000
  band No.  band energies     occupation 
      1     -33.7499      2.00000
      2     -33.7465      2.00000
      3     -14.9700      2.00000
      4     -14.9518      2.00000
      5     -14.8662      2.00000
      6     -14.8632      2.00000
[...]
     24       5.3423      2.00000
     25       5.4161      2.00000
     26       6.2991      0.00014
     27       7.3528      0.00000
     28       7.3542      0.00000
     29       7.6304      0.00000
     30       7.9973      0.00000

 k-point    16 :       0.4286    0.2000    0.2000
  band No.  band energies     occupation 
      1     -34.2419      2.00000
      2     -34.2370      2.00000
      3     -15.4784      2.00000
      4     -15.4412      2.00000
      5     -15.3578      2.00000
      6     -15.3273      2.00000
      7     -15.3116      2.00000
      8     -15.2811      2.00000
      9      -7.1238      2.00000
     10      -4.6936      2.00000
     11      -4.5189      2.00000
     12      -1.9602      2.00000
     13      -0.8205      2.00000
     14       0.4315      2.00000
     15       0.6375      2.00000
     16       1.4571      2.00000
     17       2.0038      2.00000
     18       2.1450      2.00000
     19       2.3604      2.00000
     20       3.0364      2.00000
     21       3.3581      2.00000
     22       3.9275      2.00000
     23       4.8352      2.00000
     24       5.1485      2.00000
     25       5.5549      2.00000
     26       5.9504      2.00000
     27       7.3151      0.00000
     28       7.6324      0.00000
     29       8.0067      0.00000
     30       8.0537      0.00000

 k-point    17 :       0.0000    0.4000    0.2000
  band No.  band energies     occupation 
      1     -34.2437      2.00000
      2     -34.2417      2.00000
      3     -15.3766      2.00000
      4     -15.3679      2.00000
      5     -15.3623      2.00000
      6     -15.3563      2.00000
      7     -15.3181      2.00000
      8     -15.2975      2.00000
      9      -7.2131      2.00000
     10      -5.3781      2.00000
     11      -4.5948      2.00000
     12      -2.7667      2.00000
     13      -0.5672      2.00000
     14       0.5195      2.00000
     15       1.5545      2.00000
     16       2.1650      2.00000
     17       2.6019      2.00000
     18       2.6440      2.00000
     19       3.5731      2.00000
     20       3.9487      2.00000
     21       3.9754      2.00000
     22       4.3969      2.00000
     23       5.4665      2.00000
     24       5.5172      2.00000
     25       5.9581      2.00000
     26       6.1395      2.00000
     27       6.3945      0.00000
     28       6.5696      0.00000
     29       7.2072      0.00000
     30       7.6757      0.00000

 k-point    18 :       0.1429    0.4000    0.2000
  band No.  band energies     occupation 
      1     -34.2431      2.00000
      2     -34.2411      2.00000
      3     -15.3881      2.00000
      4     -15.3809      2.00000
      5     -15.3713      2.00000
      6     -15.3519      2.00000
      7     -15.3151      2.00000
      8     -15.2953      2.00000
      9      -7.1758      2.00000
     10      -5.3008      2.00000
     11      -4.5652      2.00000
     12      -2.7085      2.00000
     13      -0.5385      2.00000
     14       0.5557      2.00000
     15       1.5691      2.00000
     16       1.9994      2.00000
     17       2.3035      2.00000
     18       2.6424      2.00000
     19       3.3036      2.00000
     20       3.6063      2.00000
     21       4.0108      2.00000
     22       4.1141      2.00000
     23       5.2566      2.00000
     24       5.5913      2.00000
     25       5.8336      2.00000
     26       6.3307      0.00000
     27       6.3965      0.00000
     28       6.8571      0.00000
     29       6.9175      0.00000
     30       7.8351      0.00000

 k-point    19 :       0.2857    0.4000    0.2000
  band No.  band energies     occupation 
      1     -34.2416      2.00000
      2     -34.2397      2.00000
      3     -15.4317      2.00000
      4     -15.4204      2.00000
      5     -15.3617      2.00000
      6     -15.3428      2.00000
      7     -15.3090      2.00000
      8     -15.2903      2.00000
      9      -7.0942      2.00000
     10      -5.1147      2.00000
     11      -4.4930      2.00000
     12      -2.5682      2.00000
     13      -0.5043      2.00000
     14       0.6446      2.00000
     15       1.5034      2.00000
     16       1.5975      2.00000
     17       1.9073      2.00000
     18       2.5458      2.00000
     19       2.8699      2.00000
     20       3.2246      2.00000
     21       3.5301      2.00000
     22       4.1390      2.00000
     23       4.7015      2.00000
     24       5.1703      2.00000
     25       5.7948      2.00000
     26       6.4881      0.00000
     27       6.5241      0.00000
     28       7.1028      0.00000
     29       7.2417      0.00000
     30       8.0545      0.00000

 k-point    20 :       0.4286    0.4000    0.2000
  band No.  band energies     occupation 
      1     -34.2404      2.00000
      2     -34.2385      2.00000
      3     -15.4660      2.00000
      4     -15.4518      2.00000
      5     -15.3542      2.00000
      6     -15.3349      2.00000
      7     -15.3042      2.00000
      8     -15.2862      2.00000
      9      -7.0313      2.00000
     10      -4.9498      2.00000
     11      -4.4286      2.00000
     12      -2.4436      2.00000
     13      -0.5370      2.00000
     14       0.7558      2.00000
     15       1.1397      2.00000
     16       1.4745      2.00000
     17       1.8034      2.00000
     18       2.2488      2.00000
     19       2.8341      2.00000
     20       3.0560      2.00000
     21       3.1492      2.00000
     22       4.1921      2.00000
     23       4.2083      2.00000
     24       4.7817      2.00000
     25       6.0199      2.00000
     26       6.2773      0.46629
     27       6.6470      0.00000
     28       7.4434      0.00000
     29       7.5329      0.00000
     30       7.9945      0.00000

 k-point    21 :       0.0000    0.4000    0.4000
  band No.  band energies     occupation 
      1     -34.2431      2.00000
      2     -34.2424      2.00000
      3     -15.3895      2.00000
      4     -15.3809      2.00000
      5     -15.3661      2.00000
      6     -15.3640      2.00000
      7     -15.2945      2.00000
      8     -15.2864      2.00000
      9      -7.0021      2.00000
     10      -5.1531      2.00000
     11      -5.0913      2.00000
     12      -3.4659      2.00000
     13       0.0555      2.00000
     14       1.4380      2.00000
     15       1.7023      2.00000
     16       2.6214      2.00000
     17       2.6221      2.00000
     18       2.6714      2.00000
     19       3.7057      2.00000
     20       3.8930      2.00000
     21       4.0020      2.00000
     22       4.0928      2.00000
     23       4.9396      2.00000
     24       5.4037      2.00000
     25       5.7745      2.00000
     26       5.9351      2.00000
     27       6.0274      2.00000
     28       6.4199      0.00000
     29       6.6989      0.00000
     30       7.0352      0.00000

 k-point    22 :       0.1429    0.4000    0.4000
  band No.  band energies     occupation 
      1     -34.2425      2.00000
      2     -34.2417      2.00000
      3     -15.3859      2.00000
      4     -15.3838      2.00000
      5     -15.3823      2.00000
      6     -15.3759      2.00000
      7     -15.2922      2.00000
      8     -15.2846      2.00000
      9      -6.9949      2.00000
     10      -5.0772      2.00000
     11      -5.0060      2.00000
     12      -3.4060      2.00000
     13       0.0039      2.00000
     14       1.4624      2.00000
     15       1.6395      2.00000
     16       2.3669      2.00000
     17       2.5742      2.00000
     18       2.6591      2.00000
     19       3.4421      2.00000
     20       3.5028      2.00000
     21       3.7767      2.00000
     22       4.0726      2.00000
     23       5.0638      2.00000
     24       5.4376      2.00000
     25       5.6755      2.00000
     26       5.7922      2.00000
     27       6.0617      2.00000
     28       6.5134      0.00000
     29       7.0223      0.00000
     30       7.0474      0.00000

 k-point    23 :       0.2857    0.4000    0.4000
  band No.  band energies     occupation 
      1     -34.2410      2.00000
      2     -34.2403      2.00000
      3     -15.4274      2.00000
      4     -15.4230      2.00000
      5     -15.3733      2.00000
      6     -15.3647      2.00000
      7     -15.2875      2.00000
      8     -15.2803      2.00000
      9      -6.9821      2.00000
     10      -4.8912      2.00000
     11      -4.8044      2.00000
     12      -3.2603      2.00000
     13      -0.1441      2.00000
     14       1.5048      2.00000
     15       1.5216      2.00000
     16       1.8506      2.00000
     17       2.2261      2.00000
     18       2.5512      2.00000
     19       2.9394      2.00000
     20       3.1810      2.00000
     21       3.4263      2.00000
     22       4.1014      2.00000
     23       5.0695      2.00000
     24       5.2386      2.00000
     25       5.4770      2.00000
     26       5.9288      2.00000
     27       6.2757      0.61625
     28       6.7435      0.00000
     29       6.8611      0.00000
     30       7.4152      0.00000

 k-point    24 :       0.4286    0.4000    0.4000
  band No.  band energies     occupation 
      1     -34.2398      2.00000
      2     -34.2391      2.00000
      3     -15.4606      2.00000
      4     -15.4552      2.00000
      5     -15.3659      2.00000
      6     -15.3542      2.00000
      7     -15.2839      2.00000
      8     -15.2767      2.00000
      9      -6.9751      2.00000
     10      -4.7236      2.00000
     11      -4.6305      2.00000
     12      -3.1293      2.00000
     13      -0.3007      2.00000
     14       1.4202      2.00000
     15       1.4399      2.00000
     16       1.5972      2.00000
     17       1.7804      2.00000
     18       2.3393      2.00000
     19       2.7095      2.00000
     20       3.1640      2.00000
     21       3.3093      2.00000
     22       4.1562      2.00000
     23       4.7105      2.00000
     24       4.9581      2.00000
     25       5.7918      2.00000
     26       6.2670      1.53669
     27       6.4058      0.00000
     28       6.5444      0.00000
     29       7.0624      0.00000
     30       7.5651      0.00000


--------------------------------------------------------------------------------------------------------


 soft charge-density along one line, spin component           1
         0         1         2         3         4         5         6         7         8         9
 total charge-density along one line
 
 pseudopotential strength for first ion, spin component:           1
  6.258   9.517  -0.000   0.000  -0.000  -0.000   0.000  -0.000
  9.517  14.466  -0.000   0.000  -0.000  -0.000   0.000  -0.000
 -0.000  -0.000  -2.111  -0.000   0.000  -3.567  -0.000   0.000
  0.000   0.000  -0.000  -2.104  -0.000  -0.000  -3.556  -0.000
 -0.000  -0.000   0.000  -0.000  -2.111   0.000  -0.000  -3.567
 -0.000  -0.000  -3.567  -0.000   0.000  -5.829  -0.000   0.000
  0.000   0.000  -0.000  -3.556  -0.000  -0.000  -5.811  -0.000
 -0.000  -0.000   0.000  -0.000  -3.567   0.000  -0.000  -5.829
 total augmentation occupancy for first ion, spin component:           1
  2.506  -0.339   0.000   0.000   0.000  -0.000   0.000   0.000
 -0.339   0.062   0.000   0.000   0.000   0.000   0.000   0.000
  0.000   0.000   1.010   0.000   0.000  -0.195  -0.000  -0.000
  0.000   0.000   0.000   2.013   0.000  -0.000  -0.383  -0.000
  0.000   0.000   0.000   0.000   1.010  -0.000  -0.000  -0.195
  0.000   0.000  -0.195  -0.000  -0.000   0.040   0.000   0.000
  0.000   0.000  -0.000  -0.383  -0.000   0.000   0.076   0.000
  0.000   0.000  -0.000  -0.000  -0.195   0.000   0.000   0.040


------------------------ aborting loop because EDIFF is reached ----------------------------------------





 total charge

# of ion       s       p       d       tot
------------------------------------------
    1        0.801   0.801   0.000   1.602
    2        2.034   5.854   0.341   8.228
    3        2.034   5.854   0.341   8.228
    4        0.401   0.549   6.444   7.394
    5        1.068   1.385   0.000   2.453
    6        1.068   1.385   0.000   2.453
    7        1.068   1.385   0.000   2.453
    8        1.068   1.385   0.000   2.453
--------------------------------------------------
tot          9.543  18.596   7.125  35.264
 
    CHARGE:  cpu time    0.0509: real time    0.0509
    FORLOC:  cpu time    0.0037: real time    0.0037
    FORNL :  cpu time    0.1202: real time    0.1202
    STRESS:  cpu time    0.6668: real time    0.6669
    FORCOR:  cpu time    0.0188: real time    0.0188
    FORHAR:  cpu time    0.0066: real time    0.0066
    MIXING:  cpu time    0.0008: real time    0.0008
    OFIELD:  cpu time    0.0000: real time    0.0000

  FORCE on cell =-STRESS in cart. coord.  units (eV):
  Direction    XX          YY          ZZ          XY          YZ          ZX
  --------------------------------------------------------------------------------------
  Alpha Z   167.40971   167.40971   167.40971
  Ewald    -930.67868  -930.67868  -904.80031    -0.00000     0.00000     0.00000
  Hartree   207.56288   207.56288   269.20711    -0.00000    -0.00000    -0.00000
  E(xc)    -203.76068  -203.76068  -204.71100     0.00000     0.00000    -0.00000
  Local      50.62940    50.62940   -63.72073    -0.00000     0.00000    -0.00000
  n-local   113.21930   116.13814   121.08445     0.64664     0.43510     0.93601
  augment    49.12776    49.12776    46.32536     0.00000     0.00000     0.00000
  Kinetic   552.32072   535.53148   567.52711    -3.99538     0.52057    -0.04928
  Fock        0.00000     0.00000     0.00000     0.00000     0.00000     0.00000
  -------------------------------------------------------------------------------------
  Total      -1.10479    -1.10479    -1.67830    -0.00000    -0.00000    -0.00000
  in kB     -13.10311   -13.10311   -19.90517    -0.00000    -0.00000    -0.00000
  external pressure =      -15.37 kB  Pullay stress =        0.00 kB


 VOLUME and BASIS-vectors are now :
 -----------------------------------------------------------------------------
  energy-cutoff  :      400.00
  volume of cell :      135.09
      direct lattice vectors                 reciprocal lattice vectors
     0.000000000  0.000000000  4.131776681    -0.000000000 -0.000000000  0.242026633
     5.717933866  0.000000000  0.000000000     0.174888347 -0.000000000 -0.000000000
     0.000000000  5.717933866  0.000000000    -0.000000000  0.174888347 -0.000000000

  length of vectors
     4.131776681  5.717933866  5.717933866     0.242026633  0.174888347  0.174888347


 FORCES acting on ions
    electron-ion (+dipol)            ewald-force                    non-local-force                 convergence-correction
 -----------------------------------------------------------------------------------------------
   -.198E-12 0.389E-12 -.723E-07   -.178E-14 -.178E-14 -.378E-14   -.299E-19 -.102E-19 -.851E-20   -.108E-14 -.781E-13 -.282E-14
   0.185E-11 0.883E-07 0.565E+00   0.142E-13 -.142E-13 -.570E+00   -.404E-19 -.288E-19 -.184E-01   0.217E-14 0.303E-12 -.257E-03
   -.365E-13 -.907E-07 -.565E+00   0.213E-13 -.711E-14 0.570E+00   0.378E-19 0.724E-20 0.184E-01   0.170E-13 -.418E-12 0.257E-03
   0.343E-12 0.344E-12 0.687E-10   -.355E-13 0.000E+00 0.444E-14   -.581E-20 -.497E-21 0.208E-20   0.131E-14 -.219E-12 0.695E-14
   0.329E+02 -.329E+02 -.226E-08   -.318E+02 0.318E+02 -.115E-13   -.113E+01 0.113E+01 0.279E-17   0.184E-01 -.184E-01 0.964E-14
   -.329E+02 -.329E+02 0.110E-08   0.318E+02 0.318E+02 -.404E-14   0.113E+01 0.113E+01 0.101E-15   -.184E-01 -.184E-01 0.819E-14
   -.329E+02 0.329E+02 -.226E-08   0.318E+02 -.318E+02 -.343E-14   0.113E+01 -.113E+01 -.394E-17   -.184E-01 0.184E-01 0.548E-14
   0.329E+02 0.329E+02 0.110E-08   -.318E+02 -.318E+02 -.362E-14   -.113E+01 -.113E+01 -.984E-16   0.184E-01 0.184E-01 0.524E-14
 -----------------------------------------------------------------------------------------------
   0.184E-11 -.241E-08 -.755E-07   -.284E-13 -.711E-14 -.385E-14   0.000E+00 0.000E+00 0.146E-17   0.224E-13 -.249E-12 -.947E-13
 
 
 POSITION                                       TOTAL-FORCE (eV/Angst)
 -----------------------------------------------------------------------------------
      2.85897      2.85897      2.06589         0.000000      0.000000     -0.000000
      2.85897      0.00000      2.06917         0.000000     -0.000000     -0.023391
      0.00000      2.85897      2.06261         0.000000      0.000000      0.023391
      2.85897      2.85897      0.00000         0.000000      0.000000     -0.000000
      1.16972      4.54821      0.00000         0.032863     -0.032863     -0.000000
      4.54821      4.54821      0.00000        -0.032863     -0.032863     -0.000000
      4.54821      1.16972      0.00000        -0.032863      0.032863     -0.000000
      1.16972      1.16972      0.00000         0.032863      0.032863      0.000000
 -----------------------------------------------------------------------------------
    total drift:                                0.000000     -0.000000     -0.000000


--------------------------------------------------------------------------------------------------------



  FREE ENERGIE OF THE ION-ELECTRON SYSTEM (eV)
  ---------------------------------------------------
  free  energy   TOTEN  =       -42.13285339 eV

  energy  without entropy=      -42.13166999  energy(sigma->0) =      -42.13226169
 
 d Force = 0.1507542E-01[-0.459E-02, 0.347E-01]  d Energy = 0.6777242E-01-0.527E-01
 d Force = 0.5020640E+01[ 0.467E+01, 0.537E+01]  d Ewald  =-0.2806197E+02 0.331E+02


--------------------------------------------------------------------------------------------------------


    POTLOK:  cpu time    0.0190: real time    0.0190


--------------------------------------------------------------------------------------------------------


 Quasi-Newton relaxation of ions (Broydens 2nd method)
  g(Force)  = 0.939E-04   g(Stress)= 0.634E-02

 retain information from N=  1 steps
 eigenvalues of (default step * inverse Hessian matrix)
  average eigenvalue of G=   5.5164
 eigenvalue spectrum of G is  5.5164


--------------------------------------------------------------------------------------------------------


     LOOP+:  cpu time    8.1617: real time    8.1621
    4ORBIT:  cpu time    0.0000: real time    0.0000



 total charge

# of ion       s       p       d       tot
------------------------------------------
    1        0.801   0.801   0.000   1.602
    2        2.034   5.854   0.341   8.228
    3        2.034   5.854   0.341   8.228
    4        0.401   0.549   6.444   7.394
    5        1.068   1.385   0.000   2.453
    6        1.068   1.385   0.000   2.453
    7        1.068   1.385   0.000   2.453
    8        1.068   1.385   0.000   2.453
--------------------------------------------------
tot          9.543  18.596   7.125  35.264
 

 total amount of memory used by VASP MPI-rank0    54229. kBytes
=======================================================================

   base      :      30000. kBytes
   nonl-proj :      16672. kBytes
   fftplans  :       1594. kBytes
   grid      :       3021. kBytes
   one-center:         62. kBytes
   wavefun   :       2880. kBytes
 
  
  
 General timing and accounting informations for this job:
 ========================================================
  
                  Total CPU time used (sec):       26.224
                            User time (sec):       26.136
                          System time (sec):        0.088
                         Elapsed time (sec):       26.492
  
                   Maximum memory used (kb):      120848.
                   Average memory used (kb):          N/A
  
                          Minor page faults:        12089
                          Major page faults:            0
                 Voluntary context switches:           77
