PROCAR new format
# of k-points:   24         # of bands:   30         # of ions:    8

 k-point     1 :    0.00000000 0.00000000 0.00000000     weight = 0.00571429

band     1 # energy  -34.24673821 # occ.  2.00000000
 
ion      s      p      d    tot
    1  0.000  0.000  0.000  0.000
    2  0.492  0.000  0.000  0.492
    3  0.492  0.000  0.000  0.492
    4  0.000  0.000  0.000  0.000
    5  0.000  0.000  0.000  0.000
    6  0.000  0.000  0.000  0.000
    7  0.000  0.000  0.000  0.000
    8  0.000  0.000  0.000  0.000
tot    0.984  0.000  0.000  0.984
 
band     2 # energy  -34.23886819 # occ.  2.00000000
 
ion      s      p      d    tot
    1  0.000  0.000  0.000  0.000
    2  0.493  0.000  0.000  0.493
    3  0.493  0.000  0.000  0.493
    4  0.000  0.000  0.000  0.000
    5  0.000  0.000  0.000  0.000
    6  0.000  0.000  0.000  0.000
    7  0.000  0.000  0.000  0.000
    8  0.000  0.000  0.000  0.000
tot    0.985  0.000  0.000  0.985
 
band     3 # energy  -15.37626816 # occ.  2.00000000
 
ion      s      p      d    tot
    1  0.000  0.000  0.000  0.000
    2  0.000  0.477  0.000  0.477
    3  0.000  0.477  0.000  0.477
    4  0.000  0.000  0.000  0.000
    5  0.000  0.000  0.000  0.000
    6  0.000  0.000  0.000  0.000
    7  0.000  0.000  0.000  0.000
    8  0.000  0.000  0.000  0.000
tot    0.000  0.955  0.000  0.955
 
band     4 # energy  -15.37546852 # occ.  2.00000000
 
ion      s      p      d    tot
    1  0.000  0.000  0.000  0.000
    2  0.000  0.464  0.000  0.464
    3  0.000  0.482  0.000  0.482
    4  0.000  0.000  0.000  0.000
    5  0.001  0.000  0.000  0.001
    6  0.001  0.000  0.000  0.001
    7  0.001  0.000  0.000  0.001
    8  0.001  0.000  0.000  0.001
tot    0.002  0.947  0.000  0.949
 
band     5 # energy  -15.37546852 # occ.  2.00000000
 
ion      s      p      d    tot
    1  0.000  0.000  0.000  0.000
    2  0.000  0.482  0.000  0.482
    3  0.000  0.464  0.000  0.464
    4  0.000  0.000  0.000  0.000
    5  0.001  0.000  0.000  0.001
    6  0.001  0.000  0.000  0.001
    7  0.001  0.000  0.000  0.001
    8  0.001  0.000  0.000  0.001
tot    0.002  0.947  0.000  0.949
 
band     6 # energy  -15.35416354 # occ.  2.00000000
 
ion      s      p      d    tot
    1  0.000  0.000  0.000  0.000
    2  0.000  0.479  0.000  0.479
    3  0.000  0.479  0.000  0.479
    4  0.000  0.000  0.000  0.000
    5  0.000  0.000  0.000  0.000
    6  0.000  0.000  0.000  0.000
    7  0.000  0.000  0.000  0.000
    8  0.000  0.000  0.000  0.000
tot    0.000  0.957  0.000  0.957
 
band     7 # energy  -15.29418780 # occ.  2.00000000
 
ion      s      p      d    tot
    1  0.000  0.000  0.000  0.000
    2  0.000  0.488  0.000  0.488
    3  0.000  0.469  0.000  0.469
    4  0.000  0.000  0.000  0.000
    5  0.000  0.000  0.000  0.000
    6  0.000  0.000  0.000  0.000
    7  0.000  0.000  0.000  0.000
    8  0.000  0.000  0.000  0.000
tot    0.000  0.958  0.000  0.958
 
band     8 # energy  -15.29418780 # occ.  2.00000000
 
ion      s      p      d    tot
    1  0.000  0.000  0.000  0.000
    2  0.000  0.469  0.000  0.469
    3  0.000  0.488  0.000  0.488
    4  0.000  0.000  0.000  0.000
    5  0.000  0.000  0.000  0.000
    6  0.000  0.000  0.000  0.000
    7  0.000  0.000  0.000  0.000
    8  0.000  0.000  0.000  0.000
tot    0.000  0.958  0.000  0.958
 
band     9 # energy   -7.69629799 # occ.  2.00000000
 
ion      s      p      d    tot
    1  0.004  0.000  0.000  0.004
    2  0.005  0.000  0.001  0.005
    3  0.005  0.000  0.001  0.005
    4  0.017  0.000  0.001  0.018
    5  0.115  0.004  0.000  0.119
    6  0.115  0.004  0.000  0.119
    7  0.115  0.004  0.000  0.119
    8  0.115  0.004  0.000  0.119
tot    0.490  0.015  0.002  0.507
 
band    10 # energy   -4.37736461 # occ.  2.00000000
 
ion      s      p      d    tot
    1  0.000  0.002  0.000  0.002
    2  0.000  0.007  0.000  0.007
    3  0.000  0.013  0.000  0.013
    4  0.000  0.015  0.000  0.015
    5  0.112  0.007  0.000  0.119
    6  0.147  0.006  0.000  0.153
    7  0.112  0.007  0.000  0.119
    8  0.147  0.006  0.000  0.153
tot    0.518  0.063  0.000  0.581
 
band    11 # energy   -4.37736461 # occ.  2.00000000
 
ion      s      p      d    tot
    1  0.000  0.002  0.000  0.002
    2  0.000  0.013  0.000  0.013
    3  0.000  0.007  0.000  0.007
    4  0.000  0.015  0.000  0.015
    5  0.147  0.006  0.000  0.153
    6  0.112  0.007  0.000  0.119
    7  0.147  0.006  0.000  0.153
    8  0.112  0.007  0.000  0.119
tot    0.518  0.063  0.000  0.581
 
band    12 # energy   -2.06123515 # occ.  2.00000000
 
ion      s      p      d    tot
    1  0.201  0.000  0.000  0.201
    2  0.003  0.000  0.006  0.009
    3  0.003  0.000  0.006  0.009
    4  0.133  0.000  0.017  0.150
    5  0.001  0.033  0.000  0.034
    6  0.001  0.033  0.000  0.034
    7  0.001  0.033  0.000  0.034
    8  0.001  0.033  0.000  0.034
tot    0.343  0.132  0.028  0.503
 
band    13 # energy   -1.65773117 # occ.  2.00000000
 
ion      s      p      d    tot
    1  0.000  0.000  0.000  0.000
    2  0.000  0.000  0.007  0.007
    3  0.000  0.000  0.007  0.007
    4  0.000  0.000  0.087  0.087
    5  0.128  0.009  0.000  0.137
    6  0.128  0.009  0.000  0.137
    7  0.128  0.009  0.000  0.137
    8  0.128  0.009  0.000  0.137
tot    0.510  0.036  0.101  0.648
 
band    14 # energy   -0.49101592 # occ.  2.00000000
 
ion      s      p      d    tot
    1  0.000  0.000  0.000  0.000
    2  0.013  0.000  0.009  0.023
    3  0.013  0.000  0.009  0.023
    4  0.000  0.000  0.030  0.030
    5  0.000  0.079  0.000  0.079
    6  0.000  0.079  0.000  0.079
    7  0.000  0.079  0.000  0.079
    8  0.000  0.079  0.000  0.079
tot    0.027  0.317  0.048  0.392
 
band    15 # energy    1.01236918 # occ.  2.00000000
 
ion      s      p      d    tot
    1  0.159  0.000  0.000  0.159
    2  0.000  0.000  0.008  0.008
    3  0.000  0.000  0.008  0.008
    4  0.003  0.000  0.265  0.268
    5  0.003  0.042  0.000  0.046
    6  0.003  0.042  0.000  0.046
    7  0.003  0.042  0.000  0.046
    8  0.003  0.042  0.000  0.046
tot    0.175  0.169  0.280  0.624
 
band    16 # energy    1.96363344 # occ.  2.00000000
 
ion      s      p      d    tot
    1  0.000  0.031  0.000  0.031
    2  0.000  0.014  0.000  0.014
    3  0.000  0.004  0.000  0.004
    4  0.000  0.072  0.000  0.072
    5  0.000  0.084  0.000  0.084
    6  0.000  0.086  0.000  0.087
    7  0.000  0.084  0.000  0.084
    8  0.000  0.086  0.000  0.087
tot    0.001  0.461  0.000  0.462
 
band    17 # energy    1.96363344 # occ.  2.00000000
 
ion      s      p      d    tot
    1  0.000  0.031  0.000  0.031
    2  0.000  0.004  0.000  0.004
    3  0.000  0.014  0.000  0.014
    4  0.000  0.072  0.000  0.072
    5  0.000  0.086  0.000  0.087
    6  0.000  0.084  0.000  0.084
    7  0.000  0.086  0.000  0.087
    8  0.000  0.084  0.000  0.084
tot    0.001  0.461  0.000  0.462
 
band    18 # energy    2.62396468 # occ.  2.00000000
 
ion      s      p      d    tot
    1  0.000  0.037  0.000  0.037
    2  0.000  0.014  0.000  0.014
    3  0.000  0.014  0.000  0.014
    4  0.000  0.039  0.000  0.039
    5  0.000  0.079  0.000  0.079
    6  0.000  0.079  0.000  0.079
    7  0.000  0.079  0.000  0.079
    8  0.000  0.079  0.000  0.079
tot    0.000  0.421  0.000  0.421
 
band    19 # energy    3.54046703 # occ.  2.00000000
 
ion      s      p      d    tot
    1  0.000  0.000  0.000  0.000
    2  0.000  0.000  0.031  0.031
    3  0.000  0.000  0.037  0.037
    4  0.000  0.000  0.286  0.286
    5  0.000  0.063  0.000  0.063
    6  0.000  0.048  0.000  0.048
    7  0.000  0.063  0.000  0.063
    8  0.000  0.048  0.000  0.048
tot    0.000  0.220  0.354  0.575
 
band    20 # energy    3.54046703 # occ.  2.00000000
 
ion      s      p      d    tot
    1  0.000  0.000  0.000  0.000
    2  0.000  0.000  0.037  0.037
    3  0.000  0.000  0.031  0.031
    4  0.000  0.000  0.286  0.286
    5  0.000  0.048  0.000  0.048
    6  0.000  0.063  0.000  0.063
    7  0.000  0.048  0.000  0.048
    8  0.000  0.063  0.000  0.063
tot    0.000  0.220  0.354  0.575
 
band    21 # energy    5.03571947 # occ.  2.00000000
 
ion      s      p      d    tot
    1  0.000  0.000  0.000  0.000
    2  0.000  0.000  0.005  0.005
    3  0.000  0.000  0.005  0.005
    4  0.000  0.000  0.823  0.823
    5  0.000  0.005  0.000  0.005
    6  0.000  0.005  0.000  0.005
    7  0.000  0.005  0.000  0.005
    8  0.000  0.005  0.000  0.005
tot    0.000  0.022  0.833  0.855
 
band    22 # energy    5.15742820 # occ.  2.00000000
 
ion      s      p      d    tot
    1  0.000  0.000  0.000  0.000
    2  0.000  0.000  0.008  0.008
    3  0.000  0.000  0.008  0.008
    4  0.000  0.000  0.760  0.760
    5  0.017  0.008  0.000  0.025
    6  0.017  0.008  0.000  0.025
    7  0.017  0.008  0.000  0.025
    8  0.017  0.008  0.000  0.025
tot    0.069  0.031  0.775  0.875
 
band    23 # energy    5.53864046 # occ.  2.00000000
 
ion      s      p      d    tot
    1  0.000  0.000  0.000  0.000
    2  0.000  0.000  0.016  0.016
    3  0.000  0.000  0.041  0.041
    4  0.000  0.000  0.581  0.581
    5  0.000  0.035  0.000  0.035
    6  0.000  0.025  0.000  0.025
    7  0.000  0.035  0.000  0.035
    8  0.000  0.025  0.000  0.025
tot    0.000  0.121  0.638  0.759
 
band    24 # energy    5.53864046 # occ.  2.00000000
 
ion      s      p      d    tot
    1  0.000  0.000  0.000  0.000
    2  0.000  0.000  0.041  0.041
    3  0.000  0.000  0.016  0.016
    4  0.000  0.000  0.581  0.581
    5  0.000  0.025  0.000  0.025
    6  0.000  0.035  0.000  0.035
    7  0.000  0.025  0.000  0.025
    8  0.000  0.035  0.000  0.035
tot    0.000  0.121  0.638  0.759
 
band    25 # energy    6.08234755 # occ.  2.00000000
 
ion      s      p      d    tot
    1  0.008  0.000  0.000  0.008
    2  0.000  0.000  0.051  0.051
    3  0.000  0.000  0.051  0.051
    4  0.011  0.000  0.492  0.503
    5  0.001  0.002  0.000  0.003
    6  0.001  0.002  0.000  0.003
    7  0.001  0.002  0.000  0.003
    8  0.001  0.002  0.000  0.003
tot    0.023  0.006  0.593  0.623
 
band    26 # energy    6.12870317 # occ.  2.00000000
 
ion      s      p      d    tot
    1  0.000  0.323  0.000  0.323
    2  0.000  0.000  0.000  0.000
    3  0.000  0.000  0.000  0.000
    4  0.000  0.201  0.000  0.201
    5  0.000  0.013  0.000  0.013
    6  0.000  0.013  0.000  0.013
    7  0.000  0.013  0.000  0.013
    8  0.000  0.013  0.000  0.013
tot    0.000  0.576  0.000  0.576
 
band    27 # energy    7.27606922 # occ.  0.00000000
 
ion      s      p      d    tot
    1  0.000  0.000  0.000  0.000
    2  0.000  0.000  0.000  0.000
    3  0.000  0.000  0.000  0.000
    4  0.000  0.000  0.000  0.000
    5  0.000  0.122  0.000  0.122
    6  0.000  0.122  0.000  0.122
    7  0.000  0.122  0.000  0.122
    8  0.000  0.122  0.000  0.122
tot    0.000  0.490  0.000  0.490
 
band    28 # energy    7.29903524 # occ.  0.00000000
 
ion      s      p      d    tot
    1  0.000  0.342  0.000  0.342
    2  0.000  0.006  0.000  0.006
    3  0.000  0.012  0.000  0.012
    4  0.000  0.000  0.000  0.000
    5  0.013  0.019  0.000  0.032
    6  0.012  0.020  0.000  0.032
    7  0.013  0.019  0.000  0.032
    8  0.012  0.020  0.000  0.032
tot    0.050  0.438  0.000  0.487
 
band    29 # energy    7.29903524 # occ.  0.00000000
 
ion      s      p      d    tot
    1  0.000  0.342  0.000  0.342
    2  0.000  0.012  0.000  0.012
    3  0.000  0.006  0.000  0.006
    4  0.000  0.000  0.000  0.000
    5  0.012  0.020  0.000  0.032
    6  0.013  0.019  0.000  0.032
    7  0.012  0.020  0.000  0.032
    8  0.013  0.019  0.000  0.032
tot    0.050  0.438  0.000  0.487
 
band    30 # energy    7.38167045 # occ.  0.00000000
 
ion      s      p      d    tot
    1  0.017  0.000  0.000  0.017
    2  0.023  0.000  0.072  0.095
    3  0.023  0.000  0.072  0.095
    4  0.027  0.000  0.029  0.056
    5  0.001  0.008  0.000  0.009
    6  0.001  0.008  0.000  0.009
    7  0.001  0.008  0.000  0.009
    8  0.001  0.008  0.000  0.009
tot    0.095  0.031  0.173  0.298
 

 k-point     2 :    0.14285714-0.00000000-0.00000000     weight = 0.01142857

band     1 # energy  -34.24603656 # occ.  2.00000000
 
ion      s      p      d    tot
    1  0.000  0.000  0.000  0.000
    2  0.492  0.000  0.000  0.492
    3  0.492  0.000  0.000  0.492
    4  0.000  0.000  0.000  0.000
    5  0.000  0.000  0.000  0.000
    6  0.000  0.000  0.000  0.000
    7  0.000  0.000  0.000  0.000
    8  0.000  0.000  0.000  0.000
tot    0.984  0.000  0.000  0.984
 
band     2 # energy  -34.23817377 # occ.  2.00000000
 
ion      s      p      d    tot
    1  0.000  0.000  0.000  0.000
    2  0.493  0.000  0.000  0.493
    3  0.493  0.000  0.000  0.493
    4  0.000  0.000  0.000  0.000
    5  0.000  0.000  0.000  0.000
    6  0.000  0.000  0.000  0.000
    7  0.000  0.000  0.000  0.000
    8  0.000  0.000  0.000  0.000
tot    0.985  0.000  0.000  0.985
 
band     3 # energy  -15.39911074 # occ.  2.00000000
 
ion      s      p      d    tot
    1  0.000  0.000  0.000  0.000
    2  0.000  0.475  0.000  0.475
    3  0.000  0.475  0.000  0.475
    4  0.000  0.000  0.000  0.000
    5  0.000  0.000  0.000  0.001
    6  0.000  0.000  0.000  0.001
    7  0.000  0.000  0.000  0.001
    8  0.000  0.000  0.000  0.001
tot    0.001  0.951  0.000  0.952
 
band     4 # energy  -15.37118449 # occ.  2.00000000
 
ion      s      p      d    tot
    1  0.000  0.000  0.000  0.000
    2  0.000  0.475  0.000  0.475
    3  0.000  0.472  0.000  0.472
    4  0.000  0.000  0.000  0.000
    5  0.001  0.000  0.000  0.001
    6  0.000  0.000  0.000  0.000
    7  0.001  0.000  0.000  0.001
    8  0.000  0.000  0.000  0.000
tot    0.002  0.948  0.000  0.949
 
band     5 # energy  -15.37118449 # occ.  2.00000000
 
ion      s      p      d    tot
    1  0.000  0.000  0.000  0.000
    2  0.000  0.472  0.000  0.472
    3  0.000  0.475  0.000  0.475
    4  0.000  0.000  0.000  0.000
    5  0.000  0.000  0.000  0.000
    6  0.001  0.000  0.000  0.001
    7  0.000  0.000  0.000  0.000
    8  0.001  0.000  0.000  0.001
tot    0.002  0.948  0.000  0.949
 
band     6 # energy  -15.36983962 # occ.  2.00000000
 
ion      s      p      d    tot
    1  0.000  0.000  0.000  0.000
    2  0.000  0.478  0.000  0.478
    3  0.000  0.478  0.000  0.478
    4  0.000  0.000  0.000  0.000
    5  0.000  0.000  0.000  0.000
    6  0.000  0.000  0.000  0.000
    7  0.000  0.000  0.000  0.000
    8  0.000  0.000  0.000  0.000
tot    0.000  0.956  0.000  0.956
 
band     7 # energy  -15.29216931 # occ.  2.00000000
 
ion      s      p      d    tot
    1  0.000  0.000  0.000  0.000
    2  0.000  0.478  0.000  0.478
    3  0.000  0.480  0.000  0.480
    4  0.000  0.000  0.000  0.000
    5  0.000  0.000  0.000  0.000
    6  0.000  0.000  0.000  0.000
    7  0.000  0.000  0.000  0.000
    8  0.000  0.000  0.000  0.000
tot    0.000  0.958  0.000  0.958
 
band     8 # energy  -15.29216931 # occ.  2.00000000
 
ion      s      p      d    tot
    1  0.000  0.000  0.000  0.000
    2  0.000  0.480  0.000  0.480
    3  0.000  0.478  0.000  0.478
    4  0.000  0.000  0.000  0.000
    5  0.000  0.000  0.000  0.000
    6  0.000  0.000  0.000  0.000
    7  0.000  0.000  0.000  0.000
    8  0.000  0.000  0.000  0.000
tot    0.000  0.958  0.000  0.958
 
band     9 # energy   -7.60983805 # occ.  2.00000000
 
ion      s      p      d    tot
    1  0.003  0.000  0.000  0.004
    2  0.004  0.003  0.000  0.007
    3  0.004  0.003  0.000  0.007
    4  0.016  0.000  0.001  0.018
    5  0.116  0.004  0.000  0.120
    6  0.116  0.004  0.000  0.120
    7  0.116  0.004  0.000  0.120
    8  0.116  0.004  0.000  0.120
tot    0.490  0.022  0.002  0.514
 
band    10 # energy   -4.38984737 # occ.  2.00000000
 
ion      s      p      d    tot
    1  0.000  0.001  0.000  0.001
    2  0.000  0.007  0.001  0.008
    3  0.000  0.009  0.002  0.011
    4  0.000  0.015  0.000  0.015
    5  0.012  0.012  0.000  0.024
    6  0.248  0.001  0.000  0.248
    7  0.012  0.012  0.000  0.024
    8  0.248  0.001  0.000  0.248
tot    0.519  0.059  0.003  0.580
 
band    11 # energy   -4.38984736 # occ.  2.00000000
 
ion      s      p      d    tot
    1  0.000  0.001  0.000  0.001
    2  0.000  0.009  0.002  0.011
    3  0.000  0.007  0.001  0.008
    4  0.000  0.015  0.000  0.015
    5  0.248  0.001  0.000  0.248
    6  0.012  0.012  0.000  0.024
    7  0.248  0.001  0.000  0.248
    8  0.012  0.012  0.000  0.024
tot    0.519  0.059  0.003  0.580
 
band    12 # energy   -1.94050248 # occ.  2.00000000
 
ion      s      p      d    tot
    1  0.199  0.002  0.000  0.201
    2  0.003  0.000  0.005  0.009
    3  0.003  0.000  0.005  0.009
    4  0.127  0.005  0.014  0.146
    5  0.001  0.033  0.000  0.034
    6  0.001  0.033  0.000  0.034
    7  0.001  0.033  0.000  0.034
    8  0.001  0.033  0.000  0.034
tot    0.336  0.139  0.025  0.500
 
band    13 # energy   -1.59823579 # occ.  2.00000000
 
ion      s      p      d    tot
    1  0.000  0.000  0.000  0.000
    2  0.000  0.000  0.006  0.006
    3  0.000  0.000  0.006  0.006
    4  0.000  0.000  0.089  0.089
    5  0.129  0.009  0.000  0.138
    6  0.129  0.009  0.000  0.138
    7  0.129  0.009  0.000  0.138
    8  0.129  0.009  0.000  0.138
tot    0.515  0.037  0.101  0.653
 
band    14 # energy   -0.36291091 # occ.  2.00000000
 
ion      s      p      d    tot
    1  0.000  0.000  0.000  0.000
    2  0.011  0.003  0.008  0.023
    3  0.011  0.003  0.008  0.023
    4  0.000  0.000  0.031  0.031
    5  0.000  0.080  0.000  0.080
    6  0.000  0.080  0.000  0.080
    7  0.000  0.080  0.000  0.080
    8  0.000  0.080  0.000  0.080
tot    0.023  0.328  0.047  0.398
 
band    15 # energy    0.85209073 # occ.  2.00000000
 
ion      s      p      d    tot
    1  0.141  0.002  0.000  0.142
    2  0.000  0.003  0.006  0.009
    3  0.000  0.003  0.006  0.009
    4  0.010  0.015  0.188  0.213
    5  0.004  0.046  0.000  0.050
    6  0.004  0.046  0.000  0.050
    7  0.004  0.046  0.000  0.050
    8  0.004  0.046  0.000  0.050
tot    0.165  0.207  0.200  0.572
 
band    16 # energy    1.95060229 # occ.  2.00000000
 
ion      s      p      d    tot
    1  0.000  0.029  0.000  0.029
    2  0.000  0.006  0.003  0.009
    3  0.000  0.010  0.003  0.013
    4  0.000  0.070  0.005  0.075
    5  0.001  0.093  0.000  0.094
    6  0.000  0.075  0.000  0.075
    7  0.001  0.093  0.000  0.094
    8  0.000  0.075  0.000  0.075
tot    0.002  0.451  0.012  0.464
 
band    17 # energy    1.95060229 # occ.  2.00000000
 
ion      s      p      d    tot
    1  0.000  0.029  0.000  0.029
    2  0.000  0.010  0.003  0.013
    3  0.000  0.006  0.003  0.009
    4  0.000  0.070  0.005  0.075
    5  0.000  0.075  0.000  0.075
    6  0.001  0.093  0.000  0.094
    7  0.000  0.075  0.000  0.075
    8  0.001  0.093  0.000  0.094
tot    0.002  0.451  0.012  0.464
 
band    18 # energy    2.31332506 # occ.  2.00000000
 
ion      s      p      d    tot
    1  0.020  0.034  0.000  0.054
    2  0.005  0.008  0.002  0.015
    3  0.005  0.008  0.002  0.015
    4  0.006  0.018  0.083  0.107
    5  0.000  0.067  0.000  0.067
    6  0.000  0.067  0.000  0.067
    7  0.000  0.067  0.000  0.067
    8  0.000  0.067  0.000  0.067
tot    0.036  0.337  0.087  0.460
 
band    19 # energy    3.32824707 # occ.  2.00000000
 
ion      s      p      d    tot
    1  0.000  0.015  0.000  0.015
    2  0.000  0.003  0.026  0.029
    3  0.000  0.004  0.025  0.029
    4  0.000  0.002  0.266  0.268
    5  0.000  0.008  0.000  0.008
    6  0.001  0.098  0.000  0.098
    7  0.000  0.008  0.000  0.008
    8  0.001  0.098  0.000  0.098
tot    0.002  0.236  0.316  0.554
 
band    20 # energy    3.32824708 # occ.  2.00000000
 
ion      s      p      d    tot
    1  0.000  0.015  0.000  0.015
    2  0.000  0.004  0.025  0.029
    3  0.000  0.003  0.026  0.029
    4  0.000  0.002  0.266  0.268
    5  0.001  0.098  0.000  0.098
    6  0.000  0.008  0.000  0.008
    7  0.001  0.098  0.000  0.098
    8  0.000  0.008  0.000  0.008
tot    0.002  0.236  0.316  0.554
 
band    21 # energy    5.05055596 # occ.  2.00000000
 
ion      s      p      d    tot
    1  0.000  0.001  0.000  0.001
    2  0.000  0.000  0.004  0.004
    3  0.000  0.000  0.004  0.004
    4  0.000  0.000  0.824  0.825
    5  0.000  0.006  0.000  0.006
    6  0.000  0.006  0.000  0.006
    7  0.000  0.006  0.000  0.006
    8  0.000  0.006  0.000  0.006
tot    0.000  0.023  0.833  0.857
 
band    22 # energy    5.06932709 # occ.  2.00000000
 
ion      s      p      d    tot
    1  0.026  0.197  0.000  0.223
    2  0.001  0.000  0.010  0.010
    3  0.001  0.000  0.010  0.010
    4  0.005  0.108  0.262  0.375
    5  0.000  0.011  0.000  0.011
    6  0.000  0.011  0.000  0.011
    7  0.000  0.011  0.000  0.011
    8  0.000  0.011  0.000  0.011
tot    0.032  0.348  0.282  0.662
 
band    23 # energy    5.14761981 # occ.  2.00000000
 
ion      s      p      d    tot
    1  0.000  0.000  0.000  0.000
    2  0.000  0.000  0.010  0.010
    3  0.000  0.000  0.010  0.010
    4  0.000  0.000  0.733  0.733
    5  0.016  0.010  0.000  0.026
    6  0.016  0.010  0.000  0.026
    7  0.016  0.010  0.000  0.026
    8  0.016  0.010  0.000  0.026
tot    0.063  0.041  0.753  0.857
 
band    24 # energy    5.47276918 # occ.  2.00000000
 
ion      s      p      d    tot
    1  0.000  0.009  0.000  0.009
    2  0.000  0.002  0.029  0.031
    3  0.000  0.001  0.022  0.023
    4  0.000  0.000  0.526  0.526
    5  0.000  0.047  0.000  0.048
    6  0.000  0.021  0.000  0.021
    7  0.000  0.047  0.000  0.048
    8  0.000  0.021  0.000  0.021
tot    0.001  0.148  0.577  0.726
 
band    25 # energy    5.47276918 # occ.  2.00000000
 
ion      s      p      d    tot
    1  0.000  0.009  0.000  0.009
    2  0.000  0.001  0.022  0.023
    3  0.000  0.002  0.029  0.031
    4  0.000  0.000  0.526  0.526
    5  0.000  0.021  0.000  0.021
    6  0.000  0.047  0.000  0.048
    7  0.000  0.021  0.000  0.021
    8  0.000  0.047  0.000  0.048
tot    0.001  0.148  0.577  0.726
 
band    26 # energy    6.57232543 # occ.  0.00000000
 
ion      s      p      d    tot
    1  0.000  0.056  0.000  0.056
    2  0.001  0.000  0.056  0.056
    3  0.001  0.000  0.056  0.056
    4  0.039  0.038  0.241  0.319
    5  0.001  0.001  0.000  0.002
    6  0.001  0.001  0.000  0.002
    7  0.001  0.001  0.000  0.002
    8  0.001  0.001  0.000  0.002
tot    0.045  0.097  0.353  0.495
 
band    27 # energy    6.57571640 # occ.  0.00000000
 
ion      s      p      d    tot
    1  0.000  0.000  0.000  0.000
    2  0.000  0.000  0.032  0.032
    3  0.000  0.000  0.032  0.032
    4  0.000  0.000  0.035  0.035
    5  0.008  0.091  0.000  0.100
    6  0.008  0.091  0.000  0.100
    7  0.008  0.091  0.000  0.100
    8  0.008  0.091  0.000  0.100
tot    0.034  0.365  0.100  0.498
 
band    28 # energy    7.47238021 # occ.  0.00000000
 
ion      s      p      d    tot
    1  0.000  0.293  0.000  0.293
    2  0.000  0.006  0.014  0.020
    3  0.000  0.008  0.011  0.019
    4  0.000  0.001  0.102  0.103
    5  0.017  0.008  0.000  0.025
    6  0.004  0.025  0.000  0.028
    7  0.017  0.008  0.000  0.025
    8  0.004  0.025  0.000  0.028
tot    0.041  0.374  0.127  0.542
 
band    29 # energy    7.47238021 # occ.  0.00000000
 
ion      s      p      d    tot
    1  0.000  0.293  0.000  0.293
    2  0.000  0.008  0.011  0.019
    3  0.000  0.006  0.014  0.020
    4  0.000  0.001  0.102  0.103
    5  0.004  0.025  0.000  0.028
    6  0.017  0.008  0.000  0.025
    7  0.004  0.025  0.000  0.028
    8  0.017  0.008  0.000  0.025
tot    0.041  0.374  0.127  0.542
 
band    30 # energy    8.13018757 # occ.  0.00000000
 
ion      s      p      d    tot
    1  0.005  0.022  0.000  0.026
    2  0.017  0.003  0.072  0.092
    3  0.017  0.003  0.072  0.092
    4  0.046  0.004  0.017  0.066
    5  0.000  0.017  0.000  0.018
    6  0.000  0.017  0.000  0.018
    7  0.000  0.017  0.000  0.018
    8  0.000  0.017  0.000  0.018
tot    0.086  0.101  0.160  0.347
 

 k-point     3 :    0.28571429 0.00000000 0.00000000     weight = 0.01142857

band     1 # energy  -34.24444928 # occ.  2.00000000
 
ion      s      p      d    tot
    1  0.000  0.000  0.000  0.000
    2  0.492  0.000  0.000  0.492
    3  0.492  0.000  0.000  0.492
    4  0.000  0.000  0.000  0.000
    5  0.000  0.000  0.000  0.000
    6  0.000  0.000  0.000  0.000
    7  0.000  0.000  0.000  0.000
    8  0.000  0.000  0.000  0.000
tot    0.985  0.000  0.000  0.985
 
band     2 # energy  -34.23679742 # occ.  2.00000000
 
ion      s      p      d    tot
    1  0.000  0.000  0.000  0.000
    2  0.493  0.000  0.000  0.493
    3  0.493  0.000  0.000  0.493
    4  0.000  0.000  0.000  0.000
    5  0.000  0.000  0.000  0.000
    6  0.000  0.000  0.000  0.000
    7  0.000  0.000  0.000  0.000
    8  0.000  0.000  0.000  0.000
tot    0.985  0.000  0.000  0.985
 
band     3 # energy  -15.44960450 # occ.  2.00000000
 
ion      s      p      d    tot
    1  0.000  0.000  0.000  0.000
    2  0.000  0.470  0.000  0.470
    3  0.000  0.470  0.000  0.470
    4  0.000  0.000  0.000  0.000
    5  0.001  0.000  0.000  0.001
    6  0.001  0.000  0.000  0.001
    7  0.001  0.000  0.000  0.001
    8  0.001  0.000  0.000  0.001
tot    0.004  0.941  0.000  0.945
 
band     4 # energy  -15.40478368 # occ.  2.00000000
 
ion      s      p      d    tot
    1  0.000  0.000  0.000  0.000
    2  0.000  0.475  0.000  0.475
    3  0.000  0.475  0.000  0.475
    4  0.000  0.000  0.000  0.000
    5  0.000  0.000  0.000  0.000
    6  0.000  0.000  0.000  0.000
    7  0.000  0.000  0.000  0.000
    8  0.000  0.000  0.000  0.000
tot    0.000  0.952  0.000  0.952
 
band     5 # energy  -15.36159069 # occ.  2.00000000
 
ion      s      p      d    tot
    1  0.000  0.000  0.000  0.000
    2  0.000  0.470  0.000  0.470
    3  0.000  0.479  0.000  0.479
    4  0.000  0.000  0.000  0.000
    5  0.000  0.000  0.000  0.001
    6  0.000  0.000  0.000  0.000
    7  0.000  0.000  0.000  0.001
    8  0.000  0.000  0.000  0.000
tot    0.001  0.950  0.000  0.951
 
band     6 # energy  -15.36159068 # occ.  2.00000000
 
ion      s      p      d    tot
    1  0.000  0.000  0.000  0.000
    2  0.000  0.479  0.000  0.479
    3  0.000  0.470  0.000  0.470
    4  0.000  0.000  0.000  0.000
    5  0.000  0.000  0.000  0.000
    6  0.000  0.000  0.000  0.001
    7  0.000  0.000  0.000  0.000
    8  0.000  0.000  0.000  0.001
tot    0.001  0.950  0.000  0.951
 
band     7 # energy  -15.28758461 # occ.  2.00000000
 
ion      s      p      d    tot
    1  0.000  0.000  0.000  0.000
    2  0.000  0.485  0.000  0.485
    3  0.000  0.473  0.000  0.473
    4  0.000  0.000  0.000  0.000
    5  0.000  0.000  0.000  0.000
    6  0.000  0.000  0.000  0.000
    7  0.000  0.000  0.000  0.000
    8  0.000  0.000  0.000  0.000
tot    0.000  0.959  0.000  0.959
 
band     8 # energy  -15.28758461 # occ.  2.00000000
 
ion      s      p      d    tot
    1  0.000  0.000  0.000  0.000
    2  0.000  0.473  0.000  0.473
    3  0.000  0.485  0.000  0.485
    4  0.000  0.000  0.000  0.000
    5  0.000  0.000  0.000  0.000
    6  0.000  0.000  0.000  0.000
    7  0.000  0.000  0.000  0.000
    8  0.000  0.000  0.000  0.000
tot    0.000  0.959  0.000  0.959
 
band     9 # energy   -7.40636669 # occ.  2.00000000
 
ion      s      p      d    tot
    1  0.002  0.000  0.000  0.002
    2  0.002  0.009  0.000  0.011
    3  0.002  0.009  0.000  0.011
    4  0.015  0.000  0.002  0.017
    5  0.118  0.005  0.000  0.122
    6  0.118  0.005  0.000  0.122
    7  0.118  0.005  0.000  0.122
    8  0.118  0.005  0.000  0.122
tot    0.492  0.037  0.002  0.531
 
band    10 # energy   -4.41835775 # occ.  2.00000000
 
ion      s      p      d    tot
    1  0.000  0.001  0.000  0.001
    2  0.000  0.004  0.005  0.009
    3  0.000  0.004  0.004  0.007
    4  0.000  0.015  0.000  0.015
    5  0.256  0.000  0.000  0.257
    6  0.004  0.013  0.000  0.017
    7  0.256  0.000  0.000  0.257
    8  0.004  0.013  0.000  0.017
tot    0.521  0.050  0.009  0.580
 
band    11 # energy   -4.41835774 # occ.  2.00000000
 
ion      s      p      d    tot
    1  0.000  0.001  0.000  0.001
    2  0.000  0.004  0.004  0.007
    3  0.000  0.004  0.005  0.009
    4  0.000  0.015  0.000  0.015
    5  0.004  0.013  0.000  0.017
    6  0.256  0.000  0.000  0.257
    7  0.004  0.013  0.000  0.017
    8  0.256  0.000  0.000  0.257
tot    0.521  0.050  0.009  0.580
 
band    12 # energy   -1.60762844 # occ.  2.00000000
 
ion      s      p      d    tot
    1  0.199  0.006  0.000  0.205
    2  0.005  0.000  0.004  0.010
    3  0.005  0.000  0.004  0.010
    4  0.104  0.021  0.008  0.133
    5  0.000  0.033  0.000  0.033
    6  0.000  0.033  0.000  0.033
    7  0.000  0.033  0.000  0.033
    8  0.000  0.033  0.000  0.033
tot    0.314  0.158  0.016  0.489
 
band    13 # energy   -1.45505621 # occ.  2.00000000
 
ion      s      p      d    tot
    1  0.000  0.000  0.000  0.000
    2  0.000  0.000  0.003  0.003
    3  0.000  0.000  0.003  0.003
    4  0.000  0.000  0.095  0.095
    5  0.132  0.010  0.000  0.141
    6  0.132  0.010  0.000  0.141
    7  0.132  0.010  0.000  0.141
    8  0.132  0.010  0.000  0.141
tot    0.526  0.039  0.101  0.666
 
band    14 # energy   -0.05675711 # occ.  2.00000000
 
ion      s      p      d    tot
    1  0.000  0.000  0.000  0.000
    2  0.006  0.012  0.004  0.022
    3  0.006  0.012  0.004  0.022
    4  0.000  0.000  0.034  0.034
    5  0.000  0.083  0.000  0.083
    6  0.000  0.083  0.000  0.083
    7  0.000  0.083  0.000  0.083
    8  0.000  0.083  0.000  0.083
tot    0.012  0.357  0.042  0.412
 
band    15 # energy    0.28713079 # occ.  2.00000000
 
ion      s      p      d    tot
    1  0.089  0.010  0.000  0.099
    2  0.003  0.006  0.003  0.012
    3  0.003  0.006  0.003  0.012
    4  0.043  0.032  0.054  0.129
    5  0.003  0.053  0.000  0.056
    6  0.003  0.053  0.000  0.056
    7  0.003  0.053  0.000  0.056
    8  0.003  0.053  0.000  0.056
tot    0.148  0.267  0.059  0.475
 