 running on   10 total cores
 distrk:  each k-point on   10 cores,    1 groups
 distr:  one band on    2 cores,    5 groups
 vasp.6.2.0 18Jan21 (build May 11 2021 12:08:04) complex                        
  
 POSCAR found type information on POSCAR B CaFeP 
 POSCAR found :  4 types and       8 ions
 scaLAPACK will be used
 LDA part: xc-table for Pade appr. of Perdew
 POSCAR, INCAR and KPOINTS ok, starting setup
 FFT: planning ...
 WAVECAR not read
 entering main loop
       N       E                     dE             d eps       ncg     rms          rms(c)
DAV:   1     0.359625594201E+03    0.35963E+03   -0.20503E+04  1440   0.133E+03
DAV:   2    -0.840585643909E+01   -0.36803E+03   -0.36464E+03  1470   0.382E+02
DAV:   3    -0.451180761224E+02   -0.36712E+02   -0.36161E+02  2530   0.965E+01
DAV:   4    -0.469538402797E+02   -0.18358E+01   -0.18309E+01  2150   0.207E+01
DAV:   5    -0.470291988025E+02   -0.75359E-01   -0.75293E-01  2410   0.361E+00    0.296E+01
DAV:   6    -0.934578007926E+02   -0.46429E+02   -0.87887E+02  1990   0.200E+02    0.954E+01
DAV:   7    -0.572873742461E+02    0.36170E+02   -0.74559E+01  1740   0.737E+01    0.368E+01
DAV:   8    -0.415411185182E+02    0.15746E+02   -0.45284E+01  2170   0.100E+02    0.729E+00
DAV:   9    -0.420714561491E+02   -0.53034E+00   -0.73330E+00  1810   0.105E+01    0.316E+00
DAV:  10    -0.420620845634E+02    0.93716E-02   -0.35850E-01  2120   0.397E+00    0.213E+00
DAV:  11    -0.420395561215E+02    0.22528E-01   -0.29689E-01  2110   0.366E+00    0.657E-01
DAV:  12    -0.420408982803E+02   -0.13422E-02   -0.75507E-02  2110   0.186E+00    0.687E-01
DAV:  13    -0.420386617149E+02    0.22366E-02   -0.92498E-03  2250   0.677E-01    0.286E-01
DAV:  14    -0.420385062188E+02    0.15550E-03   -0.32283E-03  2160   0.348E-01    0.516E-02
DAV:  15    -0.420385203402E+02   -0.14121E-04   -0.30667E-04  2240   0.117E-01
   1 F= -.42038520E+02 E0= -.42038356E+02  d E =-.420385E+02
 BRION: g(F)=  0.632E-02 g(S)=  0.211E-01
 bond charge predicted
       N       E                     dE             d eps       ncg     rms          rms(c)
DAV:   1    -0.420725056111E+02   -0.33999E-01   -0.41312E-01  1500   0.497E+00    0.742E-01
DAV:   2    -0.421163676088E+02   -0.43862E-01   -0.50765E-01  2430   0.551E+00    0.298E+00
DAV:   3    -0.420674654522E+02    0.48902E-01   -0.43958E-01  2020   0.462E+00    0.440E-01
DAV:   4    -0.420650623175E+02    0.24031E-02   -0.14154E-02  2390   0.929E-01    0.647E-02
DAV:   5    -0.420650809751E+02   -0.18658E-04   -0.80569E-04  2230   0.152E-01
   2 F= -.42065081E+02 E0= -.42064970E+02  d E =-.265606E-01
 BRION: g(F)=  0.424E-02 g(S)=  0.186E-01
 BRIONS problems: POTIM should be increased
 retain N=  1 mean eig= 9.34
 eig:   9.343
 bond charge predicted
       N       E                     dE             d eps       ncg     rms          rms(c)
DAV:   1    -0.426568252859E+02   -0.59176E+00   -0.23543E+01  1610   0.392E+01    0.645E+00
DAV:   2    -0.471456983770E+02   -0.44889E+01   -0.48714E+01  2590   0.554E+01    0.263E+01
DAV:   3    -0.422090165226E+02    0.49367E+01   -0.45910E+01  1990   0.298E+01    0.304E+00
DAV:   4    -0.421371793142E+02    0.71837E-01   -0.10769E+00  2380   0.680E+00    0.777E-01
DAV:   5    -0.421341312989E+02    0.30480E-02   -0.86931E-02  2330   0.188E+00    0.618E-01
DAV:   6    -0.421329058228E+02    0.12255E-02   -0.19656E-02  2530   0.921E-01    0.312E-01
DAV:   7    -0.421331168590E+02   -0.21104E-03   -0.60220E-03  2110   0.664E-01    0.227E-01
DAV:   8    -0.421328830445E+02    0.23381E-03   -0.21454E-03  2480   0.346E-01    0.867E-02
DAV:   9    -0.421328533918E+02    0.29653E-04   -0.21551E-04  2360   0.904E-02
   3 F= -.42132853E+02 E0= -.42132262E+02  d E =-.677724E-01
 BRION: g(F)=  0.939E-04 g(S)=  0.634E-02 retain N=  1 mean eig= 5.52
 eig:   5.516
