DFT routine                             
           1
     0.000000    0.000000    4.199705
     5.560890    0.000000    0.000000
     0.000000    5.560890    0.000000
   B    Ca   Fe   P 
     1     2     1     4
Direct configuration=     1
   0.50000000  0.50000000  0.50000000
   0.50218000  0.50000000  0.00000000
   0.49782000  0.00000000  0.50000000
   0.00000000  0.50000000  0.50000000
   0.00000000  0.20827500  0.79172500
   0.00000000  0.79172500  0.79172500
   0.00000000  0.79172500  0.20827500
   0.00000000  0.20827500  0.20827500
DFT routine                             
           1
     0.000000    0.000000    4.190569
     5.578806    0.000000    0.000000
     0.000000    5.578806    0.000000
   B    Ca   Fe   P 
     1     2     1     4
Direct configuration=     2
   0.50000000  0.50000000  0.50000000
   0.50201366  0.50000000 -0.00000000
   0.49798634 -0.00000000  0.50000000
   0.00000000  0.50000000  0.50000000
   0.00000000  0.20778268  0.79221732
   0.00000000  0.79221732  0.79221732
   0.00000000  0.79221732  0.20778268
   0.00000000  0.20778268  0.20778268
DFT routine                             
           1
     0.000000    0.000000    4.131777
     5.717934    0.000000    0.000000
     0.000000    5.717934    0.000000
   B    Ca   Fe   P 
     1     2     1     4
Direct configuration=     3
   0.50000000  0.50000000  0.50000000
   0.50079326  0.50000000 -0.00000000
   0.49920674 -0.00000000  0.50000000
   0.00000000  0.50000000  0.50000000
   0.00000000  0.20457057  0.79542943
   0.00000000  0.79542943  0.79542943
   0.00000000  0.79542943  0.20457057
   0.00000000  0.20457057  0.20457057
